DF-ISE text

Info {
  version   = 1.0
  type      = xyplot
  datasets  = [
    "time"
    "Gate OuterVoltage" "Gate InnerVoltage" "Gate QuasiFermiPotential" "Gate DisplacementCurrent" "Gate eCurrent"
    "Gate hCurrent" "Gate TotalCurrent" "Gate Charge" "Emitter OuterVoltage" "Emitter InnerVoltage"
    "Emitter QuasiFermiPotential" "Emitter DisplacementCurrent" "Emitter eCurrent" "Emitter hCurrent" "Emitter TotalCurrent"
    "Emitter Charge" "Emitter Temperature" "Emitter lHeatFlux" "Collector OuterVoltage" "Collector InnerVoltage"
    "Collector QuasiFermiPotential" "Collector DisplacementCurrent" "Collector eCurrent" "Collector hCurrent" "Collector TotalCurrent"
    "Collector Charge" "Collector Temperature" "Collector lHeatFlux" "Tmin" "Tave"
    "Tmax" ]
  functions = [
    Time
    OuterVoltage InnerVoltage QuasiFermiPotential DisplacementCurrent eCurrent
    hCurrent TotalCurrent Charge OuterVoltage InnerVoltage
    QuasiFermiPotential DisplacementCurrent eCurrent hCurrent TotalCurrent
    Charge Temperature lHeatFlux OuterVoltage InnerVoltage
    QuasiFermiPotential DisplacementCurrent eCurrent hCurrent TotalCurrent
    Charge Temperature lHeatFlux MinTemperature AveTemperature
    MaxTemperature ]
}

Data {
      0.00000000000000E+00
      1.50000000000000E+01   1.50000000000000E+01   0.00000000000000E+00   0.00000000000000E+00  -6.49058628858446E-26
      6.49058628858446E-26   0.00000000000000E+00   4.35857536629048E-07   0.00000000000000E+00   0.00000000000000E+00
      0.00000000000000E+00   0.00000000000000E+00  -6.90924872533558E-13  -1.69346315239245E-17  -6.90941807165082E-13
     -3.41542206631767E-07   3.00000000000000E+02   0.00000000000000E+00  -8.10033940982644E-16  -8.26602634867741E-16
      0.00000000000000E+00   0.00000000000000E+00   6.90924872640068E-13   1.69345249965535E-17   6.90941807165064E-13
     -9.43153299972774E-08   3.00000000000000E+02   0.00000000000000E+00   3.00000000000000E+02   2.99999999999966E+02
      3.00000000000000E+02
      1.66666666666668E-01
      1.50000000000000E+01   1.50000000000000E+01   0.00000000000000E+00   0.00000000000000E+00  -1.14719678332000E-24
      1.14719678332000E-24   0.00000000000000E+00   4.35856358346857E-07   0.00000000000000E+00   2.28498472903441E-08
      0.00000000000000E+00   0.00000000000000E+00  -2.28498470182731E-02  -3.38457787247310E-10  -2.28498473567309E-02
     -3.41573907827483E-07   3.00000000000000E+02   5.58990321842754E-03   1.99999999999992E-02   1.99999999771493E-02
      0.00000000000000E+00   0.00000000000000E+00   2.28498431181611E-02   4.23856950006970E-09   2.28498473567306E-02
     -9.42824505193734E-08   3.00000000000000E+02  -1.58991939394815E-03   2.99999989403604E+02   2.99999999138451E+02
      3.00000006806875E+02
      3.75000000000003E-01
      1.50000000000000E+01   1.50000000000000E+01   0.00000000000000E+00   0.00000000000000E+00  -4.33119872264793E-24
      4.33119872264793E-24   0.00000000000000E+00   4.35854998327599E-07   0.00000000000000E+00   4.92227442155040E-08
      0.00000000000000E+00   0.00000000000000E+00  -4.92227434580782E-02  -7.16582184443458E-10  -4.92227441746604E-02
     -3.41610469502394E-07   3.00000000000000E+02   1.18928445030645E-02   4.29166666642858E-02   4.29166666150631E-02
      0.00000000000000E+00   0.00000000000000E+00   4.92227331251066E-02   1.10495531052644E-08   4.92227441746597E-02
     -9.42445288252051E-08   3.00000000000000E+02  -4.40184326223104E-03   2.99999978467179E+02   2.99999998301825E+02
      3.00000016418911E+02
      6.35416666666671E-01
      1.50000000000000E+01   1.50000000000000E+01   0.00000000000000E+00   0.00000000000000E+00  -6.29532969856736E-24
      6.29532969856736E-24   0.00000000000000E+00   4.35852946935317E-07   0.00000000000000E+00   8.89998150997182E-08
      0.00000000000000E+00   0.00000000000000E+00  -8.89998138602526E-02  -1.26799672137955E-09  -8.89998151282493E-02
     -3.41665558892832E-07   3.00000000000000E+02   2.10988851375988E-02   7.71506076268137E-02   7.71506075378138E-02
      0.00000000000000E+00   0.00000000000000E+00   8.89997878236610E-02   2.73045866155098E-08   8.89998151282477E-02
     -9.41873880424845E-08   3.00000000000000E+02  -1.05948591213405E-02   2.99999961433994E+02   2.99999997355472E+02
      3.00000034439266E+02
      9.60937500000007E-01
      1.50000000000000E+01   1.50000000000000E+01   0.00000000000000E+00   0.00000000000000E+00  -1.09586763679369E-23
      1.09586763679369E-23   0.00000000000000E+00   4.35849779305859E-07   0.00000000000000E+00   1.50414800136764E-07
      0.00000000000000E+00   0.00000000000000E+00  -1.50414797978851E-01  -2.12942851762320E-09  -1.50414800108280E-01
     -3.41750485932145E-07   3.00000000000000E+02   3.46074180193869E-02   1.29244890529301E-01   1.29244890378886E-01
      0.00000000000000E+00   0.00000000000000E+00   1.50414721248627E-01   7.88596516383813E-08   1.50414800108279E-01
     -9.40992933737113E-08   3.00000000000000E+02  -2.46742707340369E-02   2.99999935776722E+02   2.99999996625728E+02
      3.00000070465651E+02
      1.36783854166668E+00
      1.50000000000000E+01   1.50000000000000E+01   0.00000000000000E+00   0.00000000000000E+00  -1.53565646440407E-23
      1.53565646440407E-23   0.00000000000000E+00   4.35844634210795E-07   0.00000000000000E+00   2.50153298293621E-07
      0.00000000000000E+00   0.00000000000000E+00  -2.50153293641358E-01  -4.76551053423365E-09  -2.50153298406869E-01
     -3.41888070078148E-07   3.00000000000000E+02   5.47371591704067E-02   2.11926266244776E-01   2.11926265994622E-01
      0.00000000000000E+00   0.00000000000000E+00   2.50152948465676E-01   3.49941192461690E-07   2.50153298406869E-01
     -9.39565641326464E-08   3.00000000000000E+02  -5.88561118501199E-02   2.99999895756428E+02   2.99999997277774E+02
      3.00000154190413E+02
      1.87646484375001E+00
      1.50000000000000E+01   1.50000000000000E+01   0.00000000000000E+00   0.00000000000000E+00  -1.80832930864694E-23
      1.80832930864694E-23   0.00000000000000E+00   4.35835725563095E-07   0.00000000000000E+00   4.22801369119556E-07
      0.00000000000000E+00   0.00000000000000E+00  -4.22801223457447E-01  -1.45646088493006E-07  -4.22801369103535E-01
     -3.42125222047560E-07   3.00000000000000E+02   8.43675609569161E-02   3.49553208274986E-01   3.49553207852184E-01
      0.00000000000000E+00   0.00000000000000E+00   4.22796929029091E-01   4.44007444203446E-06   4.22801369103533E-01
     -9.37105035155343E-08   3.00000000000000E+02  -1.49389992314766E-01   2.99999831244081E+02   3.00000003522349E+02
      3.00000401468932E+02
      2.51224772135418E+00
      1.50000000000000E+01   1.50000000000000E+01   0.00000000000000E+00   0.00000000000000E+00  -3.03256325459527E-23
      3.03256325459527E-23   0.00000000000000E+00   4.35818515676411E-07   0.00000000000000E+00   7.56468017075423E-07
      0.00000000000000E+00   0.00000000000000E+00  -7.56153235947051E-01  -3.14781101732210E-04  -7.56468017048783E-01
     -3.42579124428337E-07   3.00000000000000E+02   1.23120524805288E-01   5.91621013834402E-01   5.91621013077936E-01
      0.00000000000000E+00   0.00000000000000E+00   7.53977066473182E-01   2.49095057559945E-03   7.56468017048781E-01
     -9.32393912480760E-08   3.00000000000000E+02  -4.22742059464266E-01   2.99999723500160E+02   3.00000032196796E+02
      3.00001216290422E+02
      2.85212025961302E+00
      1.50000000000000E+01   1.50000000000000E+01   0.00000000000000E+00   0.00000000000000E+00  -3.72600042138750E-23
      3.72600042138750E-23   0.00000000000000E+00   4.35807507335438E-07   0.00000000000000E+00   9.75914723119680E-07
      0.00000000000000E+00   0.00000000000000E+00  -9.69250908694621E-01  -6.66381443915041E-03  -9.75914723133772E-01
     -3.42862380699076E-07   3.00000000000000E+02   1.29530422929190E-01   1.56917942393269E+00   6.96176407007776E-01
      0.00000000000000E+00   0.00000000000000E+00   9.27909201641027E-01   4.80055214927481E-02   9.75914723133775E-01
     -9.29451266363616E-08   3.00000000000000E+02  -6.28681199263819E-01   2.99999666835629E+02   3.00000063276555E+02
      3.00001746272833E+02
      3.27696093243655E+00
      1.50000000000000E+01   1.50000000000000E+01   0.00000000000000E+00   0.00000000000000E+00  -4.74321376286972E-23
      4.74321376286972E-23   0.00000000000000E+00   4.35788655758899E-07   0.00000000000000E+00   1.37760844239920E-06
      0.00000000000000E+00   0.00000000000000E+00  -1.33391142114145E+00  -4.36970212338875E-02  -1.37760844237534E+00
     -3.43325267829221E-07   3.00000000000000E+02   9.45378285321679E-02   3.24143532974758E+00   7.83977390687266E-01
      0.00000000000000E+00   0.00000000000000E+00   1.10332932113640E+00   2.74279121238926E-01   1.37760844237533E+00
     -9.24633879296780E-08   3.00000000000000E+02  -9.69382451668007E-01   2.99999593662117E+02   3.00000140270196E+02
      3.00002278167998E+02
      3.80801177346598E+00
      1.50000000000000E+01   1.50000000000000E+01   0.00000000000000E+00   0.00000000000000E+00  -5.98373619276633E-23
      5.98373619276633E-23   0.00000000000000E+00   4.35757067529862E-07   0.00000000000000E+00   2.09363008065937E-06
      0.00000000000000E+00   0.00000000000000E+00  -1.94427695306441E+00  -1.49353127591719E-01  -2.09363008065612E+00
     -3.44058521069866E-07   3.00000000000000E+02  -5.58327416614475E-02   5.67224992768177E+00   8.78107249888740E-01
      0.00000000000000E+00   0.00000000000000E+00   1.28722065667951E+00   8.06409423976581E-01   2.09363008065609E+00
     -9.16985464599978E-08   3.00000000000000E+02  -1.56254463160668E+00   2.99999536825797E+02   3.00000301793531E+02
      3.00002841511298E+02
      4.47182532475276E+00
      1.50000000000000E+01   1.50000000000000E+01   0.00000000000000E+00   0.00000000000000E+00  -7.03769336439857E-23
      7.03769336439857E-23   0.00000000000000E+00   4.35700096824420E-07   0.00000000000000E+00   3.45051196416915E-06
      0.00000000000000E+00   0.00000000000000E+00  -3.04313466170706E+00  -4.07377302447642E-01  -3.45051196415470E+00
     -3.45292047701692E-07   3.00000000000000E+02  -5.56245300567692E-01   7.05446098898905E+00   1.01308135320002E+00
      0.00000000000000E+00   0.00000000000000E+00   1.51636153959440E+00   1.93415042456024E+00   3.45051196415464E+00
     -9.04080491227271E-08   3.00000000000000E+02  -2.71589879255999E+00   2.99999620423468E+02   3.00000659621066E+02
      3.00003545446344E+02
      5.30159226386123E+00
      1.50000000000000E+01   1.50000000000000E+01   0.00000000000000E+00   0.00000000000000E+00  -1.11741666633739E-22
      1.11741666633739E-22   0.00000000000000E+00   4.35588128645968E-07   0.00000000000000E+00   6.20962150273573E-06
      0.00000000000000E+00   0.00000000000000E+00  -5.19574462118347E+00  -1.01387688152733E+00  -6.20962150271080E+00
     -3.47488379021698E-07   3.00000000000000E+02  -2.30423553788730E+00   7.51257921599702E+00   1.24557264567633E+00
      0.00000000000000E+00   0.00000000000000E+00   1.83977509176454E+00   4.36984641094618E+00   6.20962150271072E+00
     -8.80997496242704E-08   3.00000000000000E+02  -5.22320559457875E+00   3.00000181574014E+02   3.00001578196612E+02
      3.00004560051510E+02
      5.84302090276787E+00
      1.50000000000000E+01   1.50000000000000E+01   0.00000000000000E+00   0.00000000000000E+00  -1.93367059776867E-22
      1.93367059776867E-22   0.00000000000000E+00   4.35463617674599E-07   0.00000000000000E+00   9.33465343220176E-06
      0.00000000000000E+00   0.00000000000000E+00  -7.57873796103069E+00  -1.75591547112151E+00  -9.33465343215220E+00
     -3.49690472755829E-07   3.00000000000000E+02  -5.41985059571361E+00   6.05086007866662E+00   1.49113443529126E+00
      0.00000000000000E+00   0.00000000000000E+00   2.12196923412375E+00   7.21268419802842E+00   9.33465343215217E+00
     -8.57731449187709E-08   3.00000000000000E+02  -8.31620890093311E+00   3.00000295512051E+02   3.00002920214242E+02
      3.00005513019971E+02
      6.22744040063048E+00
      1.50000000000000E+01   1.50000000000000E+01   0.00000000000000E+00   0.00000000000000E+00  -3.26942623868900E-22
      3.26942623868900E-22   0.00000000000000E+00   4.35336672780621E-07   0.00000000000000E+00   1.25506182937976E-05
      0.00000000000000E+00   0.00000000000000E+00  -9.99678239096746E+00  -2.55383590287502E+00  -1.25506182938425E+01
     -3.51877263977204E-07   3.00000000000000E+02  -9.92404875576691E+00   5.73801080554211E+00   1.74156385564031E+00
      0.00000000000000E+00   0.00000000000000E+00   2.36904616040502E+00   1.01815721334375E+01   1.25506182938425E+01
     -8.34594088034186E-08   3.00000000000000E+02  -1.17694356226654E+01   3.00000421455714E+02   3.00004637678700E+02
      3.00007967962158E+02
      6.52025151616420E+00
      1.50000000000000E+01   1.50000000000000E+01   0.00000000000000E+00   0.00000000000000E+00  -5.60278626191056E-22
      5.60278626191056E-22   0.00000000000000E+00   4.35211956445534E-07   0.00000000000000E+00   1.57271999396699E-05
      0.00000000000000E+00   0.00000000000000E+00  -1.23611280560215E+01  -3.36607188359411E+00  -1.57271999396156E+01
     -3.54087622761805E-07   3.00000000000000E+02  -1.57564729086214E+01   5.74496018176053E+00   1.99429480432366E+00
      0.00000000000000E+00   0.00000000000000E+00   2.58672162395961E+00   1.31404783156559E+01   1.57271999396155E+01
     -8.11243336837282E-08   3.00000000000000E+02  -1.54524200408504E+01   3.00000554962009E+02   3.00006683523601E+02
      3.00013238668660E+02
      6.75411644731835E+00
      1.50000000000000E+01   1.50000000000000E+01   0.00000000000000E+00   0.00000000000000E+00  -8.51717892921734E-22
      8.51717892921734E-22   0.00000000000000E+00   4.35091883395263E-07   0.00000000000000E+00   1.87953763313151E-05
      0.00000000000000E+00   0.00000000000000E+00  -1.46269803178144E+01  -4.16839601356616E+00  -1.87953763313806E+01
     -3.56289522787606E-07   3.00000000000000E+02  -2.28155352957517E+01   5.88321734589646E+00   2.24814767560210E+00
      0.00000000000000E+00   0.00000000000000E+00   2.77884097278787E+00   1.60165353585927E+01   1.87953763313806E+01
     -7.88023606076573E-08   3.00000000000000E+02  -1.92792614890645E+01   3.00000693202866E+02   3.00009012971115E+02
      3.00019861958632E+02
      6.94730134533755E+00
      1.50000000000000E+01   1.50000000000000E+01   0.00000000000000E+00   0.00000000000000E+00  -1.18899787975271E-21
      1.18899787975271E-21   0.00000000000000E+00   4.34977611659633E-07   0.00000000000000E+00   2.17205124665853E-05
      0.00000000000000E+00   0.00000000000000E+00  -1.67738672187882E+01  -4.94664524785068E+00  -2.17205124666389E+01
     -3.58432886301128E-07   3.00000000000000E+02  -3.09838149797195E+01   6.08333712735599E+00   2.50243045553052E+00
      0.00000000000000E+00   0.00000000000000E+00   2.94920054387183E+00   1.87713119227667E+01   2.17205124666385E+01
     -7.65447253585042E-08   3.00000000000000E+02  -2.31927988949617E+01   3.00000834187955E+02   3.00011586024822E+02
      3.00027725471771E+02
      7.11105677466871E+00
      1.50000000000000E+01   1.50000000000000E+01   0.00000000000000E+00   0.00000000000000E+00  -1.56248231110579E-21
      1.56248231110579E-21   0.00000000000000E+00   4.34869456403781E-07   0.00000000000000E+00   2.44910488311265E-05
      0.00000000000000E+00   0.00000000000000E+00  -1.87973426979382E+01  -5.69370613321528E+00  -2.44910488311535E+01
     -3.60495734070938E-07   3.00000000000000E+02  -4.01483698604736E+01   6.31873202319289E+00   2.75668441263077E+00
      0.00000000000000E+00   0.00000000000000E+00   3.10153037625189E+00   2.13895184549013E+01   2.44910488311532E+01
     -7.43737223328432E-08   3.00000000000000E+02  -2.71577147082719E+01   3.00000976915664E+02   3.00014369139983E+02
      3.00036722421119E+02
      7.25280623759622E+00
      1.50000000000000E+01   1.50000000000000E+01   0.00000000000000E+00   0.00000000000000E+00  -1.96044495314756E-21
      1.96044495314756E-21   0.00000000000000E+00   4.34767203909004E-07   0.00000000000000E+00   2.71102534375329E-05
      0.00000000000000E+00   0.00000000000000E+00  -2.07028032182486E+01  -6.40745021932431E+00  -2.71102534375729E+01
     -3.62520671064690E-07   3.00000000000000E+02  -5.02138177189316E+01   6.57962862076373E+00   3.01068549569935E+00
      0.00000000000000E+00   0.00000000000000E+00   3.23904885194420E+00   2.38712045856285E+01   2.71102534375727E+01
     -7.22465328443145E-08   3.00000000000000E+02  -3.11556362399525E+01   3.00001120940724E+02   3.00017336788905E+02
      3.00046752223433E+02
      7.37762009168911E+00
      1.50000000000000E+01   1.50000000000000E+01   0.00000000000000E+00   0.00000000000000E+00  -2.37785947354884E-21
      2.37785947354884E-21   0.00000000000000E+00   4.34670434708930E-07   0.00000000000000E+00   2.95877557727562E-05
      0.00000000000000E+00   0.00000000000000E+00  -2.24993070401235E+01  -7.08844873262402E+00  -2.95877557727475E+01
     -3.64531456912418E-07   3.00000000000000E+02  -6.11015628266391E+01   6.85961268685380E+00   3.26438515576105E+00
      0.00000000000000E+00   0.00000000000000E+00   3.36425687503336E+00   2.62234988977140E+01   2.95877557727473E+01
     -7.01389777965114E-08   3.00000000000000E+02  -3.51786762707860E+01   3.00001265634459E+02   3.00020470789262E+02
      3.00057723637846E+02
      7.48903649332172E+00
      1.50000000000000E+01   1.50000000000000E+01   0.00000000000000E+00   0.00000000000000E+00  -2.80050949422287E-21
      2.80050949422287E-21   0.00000000000000E+00   4.34578719703416E-07   0.00000000000000E+00   3.19339996387813E-05
      0.00000000000000E+00   0.00000000000000E+00  -2.41958944427844E+01  -7.73810519594633E+00  -3.19339996387307E+01
     -3.66526694824447E-07   3.00000000000000E+02  -7.27441771151254E+01   7.15224337796106E+00   3.51781779234744E+00
      0.00000000000000E+00   0.00000000000000E+00   3.47902685398149E+00   2.84549727847493E+01   3.19339996387308E+01
     -6.80520248789689E-08   3.00000000000000E+02  -3.92228580031927E+01   3.00001411323993E+02   3.00023756942323E+02
      3.00069551455403E+02
      7.58958166885823E+00
      1.50000000000000E+01   1.50000000000000E+01   0.00000000000000E+00   0.00000000000000E+00  -3.22691111141939E-21
      3.22691111141939E-21   0.00000000000000E+00   4.34491702918894E-07   0.00000000000000E+00   3.41578621688244E-05
      0.00000000000000E+00   0.00000000000000E+00  -2.58000759615866E+01  -8.35778620715153E+00  -3.41578621687381E+01
     -3.68495234651182E-07   3.00000000000000E+02  -8.50800858794895E+01   7.45140615211451E+00   3.77104813419851E+00
      0.00000000000000E+00   0.00000000000000E+00   3.58475476911039E+00   3.05731073996276E+01   3.41578621687380E+01
     -6.59964682677139E-08   3.00000000000000E+02  -4.32845946226637E+01   3.00001558064081E+02   3.00027182706062E+02
      3.00082151629379E+02
      7.68109951264623E+00
      1.50000000000000E+01   1.50000000000000E+01   0.00000000000000E+00   0.00000000000000E+00  -3.64971252763531E-21
      3.64971252763531E-21   0.00000000000000E+00   4.34409126634317E-07   0.00000000000000E+00   3.62658933570613E-05
      0.00000000000000E+00   0.00000000000000E+00  -2.73174128620995E+01  -8.94848049499193E+00  -3.62658933570914E+01
     -3.70413251059724E-07   3.00000000000000E+02  -9.80488538924066E+01   7.75115622569344E+00   4.02413202188585E+00
      0.00000000000000E+00   0.00000000000000E+00   3.68248362181474E+00   3.25834097352766E+01   3.62658933570913E+01
     -6.39958755745940E-08   3.00000000000000E+02  -4.73591823724627E+01   3.00001704848973E+02   3.00030735995726E+02
      3.00095436788301E+02
      7.76499124717663E+00
      1.50000000000000E+01   1.50000000000000E+01   0.00000000000000E+00   0.00000000000000E+00  -4.06280434775878E-21
      4.06280434775878E-21   0.00000000000000E+00   4.34330668606555E-07   0.00000000000000E+00   3.82663234001194E-05
      0.00000000000000E+00   0.00000000000000E+00  -2.87545834982193E+01  -9.51173990190656E+00  -3.82663234001259E+01
     -3.72256193591952E-07   3.00000000000000E+02  -1.11591608061791E+02   8.04846375367074E+00   4.27684293206151E+00
      0.00000000000000E+00   0.00000000000000E+00   3.77316981064571E+00   3.44931535894801E+01   3.82663234001258E+01
     -6.20744750146028E-08   3.00000000000000E+02  -5.14439029846566E+01   3.00001852495162E+02   3.00034405883739E+02
      3.00109330627392E+02
      7.84253761680122E+00
      1.50000000000000E+01   1.50000000000000E+01   0.00000000000000E+00   0.00000000000000E+00  -4.46202083465559E-21
      4.46202083465559E-21   0.00000000000000E+00   4.34255590060518E-07   0.00000000000000E+00   4.01779847909937E-05
      0.00000000000000E+00   0.00000000000000E+00  -3.01258085807804E+01  -1.00521762102139E+01  -4.01779847909944E+01
     -3.74050127749183E-07   3.00000000000000E+02  -1.25689320630229E+02   8.36356649576624E+00   4.52896389376703E+00
      0.00000000000000E+00   0.00000000000000E+00   3.85809092769786E+00   3.63198938632965E+01   4.01779847909943E+01
     -6.02054623113352E-08   3.00000000000000E+02  -5.55510664800296E+01   3.00002001408290E+02   3.00038191772245E+02
      3.00123825295625E+02
      7.91482047710611E+00
      1.50000000000000E+01   1.50000000000000E+01   0.00000000000000E+00   0.00000000000000E+00  -4.85549125855469E-21
      4.85549125855469E-21   0.00000000000000E+00   4.34183200537051E-07   0.00000000000000E+00   4.20185743953641E-05
      0.00000000000000E+00   0.00000000000000E+00  -3.14441821908189E+01  -1.05743922045948E+01  -4.20185743954137E+01
     -3.75824659238526E-07   3.00000000000000E+02  -1.40350878070924E+02   8.70669615661293E+00   4.78074692049780E+00
      0.00000000000000E+00   0.00000000000000E+00   3.93834875892812E+00   3.80802256364859E+01   4.20185743954140E+01
     -5.83585412985251E-08   3.00000000000000E+02  -5.96967874519533E+01   3.00002152134706E+02   3.00042098886573E+02
      3.00138929609036E+02
      7.98259563893536E+00
      1.50000000000000E+01   1.50000000000000E+01   0.00000000000000E+00   0.00000000000000E+00  -5.20743712248641E-21
      5.20743712248641E-21   0.00000000000000E+00   4.34113081014466E-07   0.00000000000000E+00   4.37988835220843E-05
      0.00000000000000E+00   0.00000000000000E+00  -3.27176978123450E+01  -1.10811857098571E+01  -4.37988835222021E+01
     -3.77586982163824E-07   3.00000000000000E+02  -1.55571152294714E+02   9.06379228451681E+00   5.03228565901286E+00
      0.00000000000000E+00   0.00000000000000E+00   4.01465600558832E+00   3.97842275166138E+01   4.37988835222021E+01
     -5.65260988506424E-08   3.00000000000000E+02  -6.38893973938412E+01   3.00002304079609E+02   3.00046128274649E+02
      3.00154628278901E+02
      8.04645038937489E+00
      1.50000000000000E+01   1.50000000000000E+01   0.00000000000000E+00   0.00000000000000E+00  -5.54432612052448E-21
      5.54432612052448E-21   0.00000000000000E+00   4.34044902450638E-07   0.00000000000000E+00   4.55273877033365E-05
      0.00000000000000E+00   0.00000000000000E+00  -3.39526332436150E+01  -1.15747544597205E+01  -4.55273877033355E+01
     -3.79338974965286E-07   3.00000000000000E+02  -1.71343852585540E+02   9.43132851926892E+00   5.28361908210522E+00
      0.00000000000000E+00   0.00000000000000E+00   4.08756513720252E+00   4.14398225661327E+01   4.55273877033352E+01
     -5.47059274853516E-08   3.00000000000000E+02  -6.81352389037594E+01   3.00002458244948E+02   3.00050280456229E+02
      3.00170906108602E+02
      8.10686155436391E+00
      1.50000000000000E+01   1.50000000000000E+01   0.00000000000000E+00   0.00000000000000E+00  -5.85367243557957E-21
      5.85367243557957E-21   0.00000000000000E+00   4.33978388851707E-07   0.00000000000000E+00   4.72111891658441E-05
      0.00000000000000E+00   0.00000000000000E+00  -3.51542402523910E+01  -1.20569489133710E+01  -4.72111891657620E+01
     -3.81081407393205E-07   3.00000000000000E+02  -1.87664456997634E+02   9.80827200788907E+00   5.53478196503232E+00
      0.00000000000000E+00   0.00000000000000E+00   4.15753097683103E+00   4.30536581889307E+01   4.72111891657617E+01
     -5.28969814585004E-08   3.00000000000000E+02  -7.24398868263045E+01   3.00002614867125E+02   3.00054556221585E+02
      3.00187750861850E+02
      8.16421979799717E+00
      1.50000000000000E+01   1.50000000000000E+01   0.00000000000000E+00   0.00000000000000E+00  -6.13255726963551E-21
      6.13255726963551E-21   0.00000000000000E+00   4.33913315982291E-07   0.00000000000000E+00   4.88560574802749E-05
      0.00000000000000E+00   0.00000000000000E+00  -3.63267818861598E+01  -1.25292755942536E+01  -4.88560574804134E+01
     -3.82814662236004E-07   3.00000000000000E+02  -2.04529103492273E+02   1.01933294387463E+01   5.78581029324943E+00
      0.00000000000000E+00   0.00000000000000E+00   4.22492458240626E+00   4.46311328980070E+01   4.88560574804133E+01
     -5.10986537462860E-08   3.00000000000000E+02  -7.68079819922635E+01   3.00002774103902E+02   3.00058956369256E+02
      3.00205151286733E+02
      8.21884602160895E+00
      1.50000000000000E+01   1.50000000000000E+01   0.00000000000000E+00   0.00000000000000E+00  -6.37777764721762E-21
      6.37777764721762E-21   0.00000000000000E+00   4.33849511698942E-07   0.00000000000000E+00   5.04664328140614E-05
      0.00000000000000E+00   0.00000000000000E+00  -3.74735407358178E+01  -1.29928920782740E+01  -5.04664328140918E+01
     -3.84538745446288E-07   3.00000000000000E+02  -2.21933150738646E+02   1.05846457039890E+01   6.03673914348482E+00
      0.00000000000000E+00   0.00000000000000E+00   4.29003661851341E+00   4.61763961955780E+01   5.04664328140915E+01
     -4.93107662526524E-08   3.00000000000000E+02  -8.12429178415513E+01   3.00002936070887E+02   3.00063481244965E+02
      3.00223095842372E+02
      8.27100471141066E+00
      1.50000000000000E+01   1.50000000000000E+01   0.00000000000000E+00   0.00000000000000E+00  -6.58272600036546E-21
      6.58272600036546E-21   0.00000000000000E+00   4.33786853061632E-07   0.00000000000000E+00   5.20455076763597E-05
      0.00000000000000E+00   0.00000000000000E+00  -3.85968840456834E+01  -1.34486236306363E+01  -5.20455076763197E+01
     -3.86253264185654E-07   3.00000000000000E+02  -2.39870041572066E+02   1.09799805337375E+01   6.28760093129864E+00
      0.00000000000000E+00   0.00000000000000E+00   4.35308674122914E+00   4.76924209350900E+01   5.20455076763191E+01
     -4.75335888759797E-08   3.00000000000000E+02  -8.57467231470489E+01   3.00003100835034E+02   3.00068130506135E+02
      3.00241572286257E+02
      8.32091503188368E+00
      1.50000000000000E+01   1.50000000000000E+01   0.00000000000000E+00   0.00000000000000E+00  -6.75878895411357E-21
      6.75878895411357E-21   0.00000000000000E+00   4.33725259731077E-07   0.00000000000000E+00   5.35954015701978E-05
      0.00000000000000E+00   0.00000000000000E+00  -3.96983932398582E+01  -1.38970083303515E+01  -5.35954015702096E+01
     -3.87957307119013E-07   3.00000000000000E+02  -2.58330593097408E+02   1.13769199948420E+01   6.53842153257096E+00
      0.00000000000000E+00   0.00000000000000E+00   4.41423584142970E+00   4.91811657287794E+01   5.35954015702091E+01
     -4.57679526120650E-08   3.00000000000000E+02  -9.03201184277739E+01   3.00003267934810E+02   3.00072903029740E+02
      3.00260566869992E+02
      8.36876103230926E+00
      1.50000000000000E+01   1.50000000000000E+01   0.00000000000000E+00   0.00000000000000E+00  -6.87026792719049E-21
      6.87026792719049E-21   0.00000000000000E+00   4.33664683796362E-07   0.00000000000000E+00   5.51174207434173E-05
      0.00000000000000E+00   0.00000000000000E+00  -4.07790521681503E+01  -1.43383685752779E+01  -5.51174207434281E+01
     -3.89649187846983E-07   3.00000000000000E+02  -2.77303096877350E+02   1.17733639077354E+01   6.78922072762758E+00
      0.00000000000000E+00   0.00000000000000E+00   4.47360245310663E+00   5.06438182903211E+01   5.51174207434277E+01
     -4.40154959493799E-08   3.00000000000000E+02  -9.49628033981396E+01   3.00003437391120E+02   3.00077797064760E+02
      3.00280295030441E+02
      8.41469897254962E+00
      1.50000000000000E+01   1.50000000000000E+01   0.00000000000000E+00   0.00000000000000E+00  -6.93159240972076E-21
      6.93159240972076E-21   0.00000000000000E+00   4.33605105612920E-07   0.00000000000000E+00   5.66121657903060E-05
      0.00000000000000E+00   0.00000000000000E+00  -4.18393226473543E+01  -1.47728431428298E+01  -5.66121657901841E+01
     -3.91325914935756E-07   3.00000000000000E+02  -2.96773303524997E+02   1.21673965827907E+01   7.04001906568144E+00
      0.00000000000000E+00   0.00000000000000E+00   4.53126747292676E+00   5.20808983172571E+01   5.66121657901838E+01
     -4.22791906771644E-08   3.00000000000000E+02  -9.96735551478580E+01   3.00003609587594E+02   3.00082810242195E+02
      3.00300704328746E+02
      8.45886091850319E+00
      1.50000000000000E+01   1.50000000000000E+01   0.00000000000000E+00   0.00000000000000E+00  -6.94310644031947E-21
      6.94310644031947E-21   0.00000000000000E+00   4.33546539944207E-07   0.00000000000000E+00   5.80793973331663E-05
      0.00000000000000E+00   0.00000000000000E+00  -4.28790431388181E+01  -1.52003541943786E+01  -5.80793973331967E+01
     -3.92982053937777E-07   3.00000000000000E+02  -3.16723148551475E+02   1.25565857148047E+01   7.29084601848736E+00
      0.00000000000000E+00   0.00000000000000E+00   4.58727040000161E+00   5.34921269331946E+01   5.80793973331962E+01
     -4.05644860064284E-08   3.00000000000000E+02  -1.04450119556862E+02   3.00003784445729E+02   3.00087939518994E+02
      3.00321601894103E+02
      8.50135480236488E+00
      1.50000000000000E+01   1.50000000000000E+01   0.00000000000000E+00   0.00000000000000E+00  -6.89560178610154E-21
      6.89560178610154E-21   0.00000000000000E+00   4.33489047406976E-07   0.00000000000000E+00   5.95177665478650E-05