DF-ISE text

Info {
  version   = 1.0
  type      = xyplot
  datasets  = [
    "time"
    "Gate OuterVoltage" "Gate InnerVoltage" "Gate QuasiFermiPotential" "Gate DisplacementCurrent" "Gate eCurrent"
    "Gate hCurrent" "Gate TotalCurrent" "Gate Charge" "Emitter OuterVoltage" "Emitter InnerVoltage"
    "Emitter QuasiFermiPotential" "Emitter DisplacementCurrent" "Emitter eCurrent" "Emitter hCurrent" "Emitter TotalCurrent"
    "Emitter Charge" "Collector OuterVoltage" "Collector InnerVoltage" "Collector QuasiFermiPotential" "Collector DisplacementCurrent"
    "Collector eCurrent" "Collector hCurrent" "Collector TotalCurrent" "Collector Charge" ]
  functions = [
    Time
    OuterVoltage InnerVoltage QuasiFermiPotential DisplacementCurrent eCurrent
    hCurrent TotalCurrent Charge OuterVoltage InnerVoltage
    QuasiFermiPotential DisplacementCurrent eCurrent hCurrent TotalCurrent
    Charge OuterVoltage InnerVoltage QuasiFermiPotential DisplacementCurrent
    eCurrent hCurrent TotalCurrent Charge ]
}

Data {
      0.00000000000000E+00
      1.50000000000000E+01   1.50000000000000E+01   0.00000000000000E+00   0.00000000000000E+00  -6.79676062349109E-26
      6.79676062349109E-26   0.00000000000000E+00   4.35857536629048E-07   0.00000000000000E+00   0.00000000000000E+00
      0.00000000000000E+00   0.00000000000000E+00  -7.38805820752880E-14  -1.27592767284841E-17  -7.38933413520164E-14
     -3.41542206631767E-07  -3.47111544085041E-21   0.00000000000000E+00   0.00000000000000E+00   0.00000000000000E+00
      7.38805817039639E-14   1.27596480566564E-17   7.38933413520205E-14  -9.43153299972775E-08
      1.66666666666667E-01
      1.50000000000000E+01   1.50000000000000E+01   0.00000000000000E+00   0.00000000000000E+00  -9.47427113110935E-26
      9.47427113110935E-26   0.00000000000000E+00   4.35856358350245E-07   0.00000000000000E+00   2.28498673782493E-08
      0.00000000000000E+00   0.00000000000000E+00  -2.28498669729699E-02  -3.38458112340495E-10  -2.28498673114280E-02
     -3.41573907658531E-07   2.00000000000000E-02   1.99999999771500E-02   0.00000000000000E+00   0.00000000000000E+00
      2.28498630728559E-02   4.23857188924726E-09   2.28498673114278E-02  -9.42824506917140E-08
      3.75000000000000E-01
      1.50000000000000E+01   1.50000000000000E+01   0.00000000000000E+00   0.00000000000000E+00  -6.16104518154991E-26
      6.16104518154991E-26   0.00000000000000E+00   4.35854998334678E-07   0.00000000000000E+00   4.92227875599579E-08
      0.00000000000000E+00   0.00000000000000E+00  -4.92227868680214E-02  -7.16581493126930E-10  -4.92227875846029E-02
     -3.41610469145936E-07   4.29166666642865E-02   4.29166666150637E-02   0.00000000000000E+00   0.00000000000000E+00
      4.92227765350444E-02   1.10495578413371E-08   4.92227875846023E-02  -9.42445291887408E-08
      6.35416666666667E-01
      1.50000000000000E+01   1.50000000000000E+01   0.00000000000000E+00   0.00000000000000E+00  -9.67416751904658E-26
      9.67416751904658E-26   0.00000000000000E+00   4.35852946947362E-07   0.00000000000000E+00   8.89998979055764E-08
      0.00000000000000E+00   0.00000000000000E+00  -8.89998965606757E-02  -1.26799362304342E-09  -8.89998978286693E-02
     -3.41665558272716E-07   7.71506076268143E-02   7.71506075378146E-02   0.00000000000000E+00   0.00000000000000E+00
      8.89998705240699E-02   2.73045974432623E-08   8.89998978286674E-02  -9.41873886746459E-08
      9.60937500000000E-01
      1.50000000000000E+01   1.50000000000000E+01   0.00000000000000E+00   0.00000000000000E+00  -9.12156709777665E-26
      9.12156709777665E-26   0.00000000000000E+00   4.35849779323665E-07   0.00000000000000E+00   1.50414962462944E-07
      0.00000000000000E+00   0.00000000000000E+00  -1.50414960345463E-01  -2.12942851230599E-09  -1.50414962474892E-01
     -3.41750484962705E-07   1.29244890529301E-01   1.29244890378886E-01   0.00000000000000E+00   0.00000000000000E+00
      1.50414883615196E-01   7.88596939771048E-08   1.50414962474890E-01  -9.40992943609602E-08
      1.36783854166667E+00
      1.50000000000000E+01   1.50000000000000E+01   0.00000000000000E+00   0.00000000000000E+00  -7.29731365774830E-26
      7.29731365774830E-26   0.00000000000000E+00   4.35844634231219E-07   0.00000000000000E+00   2.50153675663294E-07
      0.00000000000000E+00   0.00000000000000E+00  -2.50153670899304E-01  -4.76551072652221E-09  -2.50153675664814E-01
     -3.41888068736837E-07   2.11926266244775E-01   2.11926265994622E-01   0.00000000000000E+00   0.00000000000000E+00
      2.50153325723479E-01   3.49941335099880E-07   2.50153675664814E-01  -9.39565654943801E-08
      1.87646484375000E+00
      1.50000000000000E+01   1.50000000000000E+01   0.00000000000000E+00   0.00000000000000E+00  -8.17930448712313E-26
      8.17930448712313E-26   0.00000000000000E+00   4.35835725560903E-07   0.00000000000000E+00   4.22802518649331E-07
      0.00000000000000E+00   0.00000000000000E+00  -4.22802373000983E-01  -1.45644488389827E-07  -4.22802518645471E-01
     -3.42125220819067E-07   3.49553208274985E-01   3.49553207852183E-01   0.00000000000000E+00   0.00000000000000E+00
      4.22798078580240E-01   4.44006522863335E-06   4.22802518645469E-01  -9.37105047418350E-08
      2.51224772135417E+00
      1.50000000000000E+01   1.50000000000000E+01   0.00000000000000E+00   0.00000000000000E+00  -8.35366916447407E-26
      8.35366916447407E-26   0.00000000000000E+00   4.35818515514264E-07   0.00000000000000E+00   7.56472482987675E-07
      0.00000000000000E+00   0.00000000000000E+00  -7.56157714123556E-01  -3.14768857632456E-04  -7.56472482981188E-01
     -3.42579126539664E-07   5.91621013834399E-01   5.91621013077927E-01   0.00000000000000E+00   0.00000000000000E+00
      7.53981594773123E-01   2.49088820806044E-03   7.56472482981183E-01  -9.32393889746013E-08
      2.85212160002863E+00
      1.50000000000000E+01   1.50000000000000E+01   0.00000000000000E+00   0.00000000000000E+00  -8.21965139419613E-26
      8.21965139419613E-26   0.00000000000000E+00   4.35807507057820E-07   0.00000000000000E+00   9.75921049420143E-07
      0.00000000000000E+00   0.00000000000000E+00  -9.69257433330752E-01  -6.66361611841847E-03  -9.75921049449171E-01
     -3.42862385355761E-07   1.56918636334838E+00   6.96176950197362E-01   0.00000000000000E+00   0.00000000000000E+00
      9.27916185840752E-01   4.80048636084246E-02   9.75921049449176E-01  -9.29451217020603E-08
      3.27696394837171E+00
      1.50000000000000E+01   1.50000000000000E+01   0.00000000000000E+00   0.00000000000000E+00  -7.95152714294931E-26
      7.95152714294931E-26   0.00000000000000E+00   4.35788655210852E-07   0.00000000000000E+00   1.37761882509240E-06
      0.00000000000000E+00   0.00000000000000E+00  -1.33392216096776E+00  -4.36966640878963E-02  -1.37761882505566E+00
     -3.43325278325521E-07   3.24141912186123E+00   7.83978860200197E-01   0.00000000000000E+00   0.00000000000000E+00
      1.10333797688750E+00   2.74280848168148E-01   1.37761882505564E+00  -9.24633768853317E-08
      3.80801688380056E+00
      1.50000000000000E+01   1.50000000000000E+01   0.00000000000000E+00   0.00000000000000E+00  -4.78253170206628E-26
      4.78253170206628E-26   0.00000000000000E+00   4.35757066454802E-07   0.00000000000000E+00   2.09364859736256E-06
      0.00000000000000E+00   0.00000000000000E+00  -1.94429507011906E+00  -1.49353527282131E-01  -2.09364859740119E+00
     -3.44058541571201E-07   5.67224178187420E+00   8.78109496794731E-01   0.00000000000000E+00   0.00000000000000E+00
      1.28722933153231E+00   8.06419265868841E-01   2.09364859740115E+00  -9.16985248836010E-08
      4.47183305308662E+00
      1.50000000000000E+01   1.50000000000000E+01   0.00000000000000E+00   0.00000000000000E+00  -8.56998826425042E-26
      8.56998826425042E-26   0.00000000000000E+00   4.35700094704491E-07   0.00000000000000E+00   3.45054784048629E-06
      0.00000000000000E+00   0.00000000000000E+00  -3.04316669794076E+00  -4.07381142546259E-01  -3.45054784048701E+00
     -3.45292083526671E-07   7.05447007700971E+00   1.01308443156383E+00   0.00000000000000E+00   0.00000000000000E+00
      1.51636942810783E+00   1.93417841237914E+00   3.45054784048697E+00  -9.04080111778218E-08
      5.30160326469419E+00
      1.50000000000000E+01   1.50000000000000E+01   0.00000000000000E+00   0.00000000000000E+00  -6.00791062367734E-26
      6.00791062367734E-26   0.00000000000000E+00   4.35588124642555E-07   0.00000000000000E+00   6.20969926375306E-06
      0.00000000000000E+00   0.00000000000000E+00  -5.19580728732763E+00  -1.01389197645634E+00  -6.20969926378397E+00
     -3.47488422366282E-07   7.51262161653515E+00   1.24557486573610E+00   0.00000000000000E+00   0.00000000000000E+00
      1.83978239296665E+00   4.36991687081726E+00   6.20969926378391E+00  -8.80997022762718E-08
      5.84304035402222E+00
      1.50000000000000E+01   1.50000000000000E+01   0.00000000000000E+00   0.00000000000000E+00  -6.26801933718252E-26
      6.26801933718252E-26   0.00000000000000E+00   4.35463611131356E-07   0.00000000000000E+00   9.33483652394645E-06
      0.00000000000000E+00   0.00000000000000E+00  -7.57887630968861E+00  -1.75596021429488E+00  -9.33483652398349E+00
     -3.49690498649956E-07   6.05099451745262E+00   1.49113241486527E+00   0.00000000000000E+00   0.00000000000000E+00
      2.12198167899156E+00   7.21285484499185E+00   9.33483652398341E+00  -8.57731124813994E-08
      6.22747676055516E+00
      1.50000000000000E+01   1.50000000000000E+01   0.00000000000000E+00   0.00000000000000E+00  -9.01700313530466E-26
      9.01700313530466E-26   0.00000000000000E+00   4.35336661410709E-07   0.00000000000000E+00   1.25510602455026E-05
      0.00000000000000E+00   0.00000000000000E+00  -9.99710782143518E+00  -2.55395242402938E+00  -1.25510602454646E+01
     -3.51877264218283E-07   5.73828417477861E+00   1.74155559206464E+00   0.00000000000000E+00   0.00000000000000E+00
      2.36907510762190E+00   1.01819851378426E+01   1.25510602454645E+01  -8.34593971924255E-08
      6.52031119204502E+00
      1.50000000000000E+01   1.50000000000000E+01   0.00000000000000E+00   0.00000000000000E+00  -7.89284205531013E-26
      7.89284205531013E-26   0.00000000000000E+00   4.35211937067915E-07   0.00000000000000E+00   1.57281212773400E-05
      0.00000000000000E+00   0.00000000000000E+00  -1.23617997758825E+01  -3.36632150150479E+00  -1.57281212773873E+01
     -3.54087592390217E-07   5.74540258212862E+00   1.99427886124712E+00   0.00000000000000E+00   0.00000000000000E+00
      2.58678112616842E+00   1.31413401512189E+01   1.57281212773873E+01  -8.11243446776964E-08
      6.75420416398735E+00
      1.50000000000000E+01   1.50000000000000E+01   0.00000000000000E+00   0.00000000000000E+00  -7.66405033881559E-26
      7.66405033881559E-26   0.00000000000000E+00   4.35091852420471E-07   0.00000000000000E+00   1.87970420006426E-05
      0.00000000000000E+00   0.00000000000000E+00  -1.46281882580063E+01  -4.16885374267138E+00  -1.87970420006777E+01
     -3.56289462546576E-07   5.88386626356087E+00   2.24812318843972E+00   0.00000000000000E+00   0.00000000000000E+00
      2.77894539762866E+00   1.60180966030490E+01   1.87970420006777E+01  -7.88023898738940E-08
      6.94742043892735E+00
      1.50000000000000E+01   1.50000000000000E+01   0.00000000000000E+00   0.00000000000000E+00  -9.35347029905985E-26
      9.35347029905985E-26   0.00000000000000E+00   4.34977565538316E-07   0.00000000000000E+00   2.17232089657140E-05
      0.00000000000000E+00   0.00000000000000E+00  -1.67758154506493E+01  -4.94739351508559E+00  -2.17232089657349E+01
     -3.58432802902083E-07   6.08422945956679E+00   2.50239707062555E+00   0.00000000000000E+00   0.00000000000000E+00
      2.94936325736953E+00   1.87738457083651E+01   2.17232089657346E+01  -7.65447626362326E-08
      7.11120947576155E+00
      1.50000000000000E+01   1.50000000000000E+01   0.00000000000000E+00   0.00000000000000E+00  -8.02391486466057E-26
      8.02391486466057E-26   0.00000000000000E+00   4.34869391942639E-07   0.00000000000000E+00   2.44950666146161E-05
      0.00000000000000E+00   0.00000000000000E+00  -1.88002371562973E+01  -5.69482945828124E+00  -2.44950666145785E+01
     -3.60495632076619E-07   6.31990281907149E+00   2.75664212334215E+00   0.00000000000000E+00   0.00000000000000E+00
      3.10176376797854E+00   2.13933028465997E+01   2.44950666145783E+01  -7.43737598660194E-08
      7.25299399753462E+00
      1.50000000000000E+01   1.50000000000000E+01   0.00000000000000E+00   0.00000000000000E+00  -9.00555541165521E-26
      9.00555541165521E-26   0.00000000000000E+00   4.34767118394662E-07   0.00000000000000E+00   2.71158776667041E-05
      0.00000000000000E+00   0.00000000000000E+00  -2.07068454406986E+01  -6.40903222595057E+00  -2.71158776666492E+01
     -3.62520554860282E-07   6.58111336378169E+00   3.01063448578365E+00   0.00000000000000E+00   0.00000000000000E+00
      3.23936450333765E+00   2.38765131633111E+01   2.71158776666488E+01  -7.22465635343786E-08
      7.37784383770379E+00
      1.50000000000000E+01   1.50000000000000E+01   0.00000000000000E+00   0.00000000000000E+00  -8.77328679081268E-26
      8.77328679081268E-26   0.00000000000000E+00   4.34670325925044E-07   0.00000000000000E+00   2.95952621204116E-05
      0.00000000000000E+00   0.00000000000000E+00  -2.25046913367959E+01  -7.09057078362471E+00  -2.95952621204206E+01
     -3.64531334316498E-07   6.86144768974508E+00   3.26432572628664E+00   0.00000000000000E+00   0.00000000000000E+00
      3.36466554681332E+00   2.62305965736072E+01   2.95952621204205E+01  -7.01389916085466E-08
      7.48929677231698E+00
      1.50000000000000E+01   1.50000000000000E+01   0.00000000000000E+00   0.00000000000000E+00  -8.07616913755690E-26
      8.07616913755690E-26   0.00000000000000E+00   4.34578585923869E-07   0.00000000000000E+00   3.19436515064637E-05
      0.00000000000000E+00   0.00000000000000E+00  -2.42028060130927E+01  -7.74084549334563E+00  -3.19436515064384E+01
     -3.66526575006854E-07   7.15446402059275E+00   3.51775032672198E+00   0.00000000000000E+00   0.00000000000000E+00
      3.47953840704704E+00   2.84641130993913E+01   3.19436515064384E+01  -6.80520109170138E-08
      7.58987872721229E+00
      1.50000000000000E+01   1.50000000000000E+01   0.00000000000000E+00   0.00000000000000E+00  -8.50507765539163E-26
      8.50507765539163E-26   0.00000000000000E+00   4.34491542880514E-07   0.00000000000000E+00   3.41699083920533E-05
      0.00000000000000E+00   0.00000000000000E+00  -2.58086893521156E+01  -8.36121903998709E+00  -3.41699083921027E+01
     -3.68495126979791E-07   7.45404577279577E+00   3.77097308434451E+00   0.00000000000000E+00   0.00000000000000E+00
      3.58537812888041E+00   3.05845302632224E+01   3.41699083921028E+01  -6.59964159007222E-08
      7.68143333187754E+00
      1.50000000000000E+01   1.50000000000000E+01   0.00000000000000E+00   0.00000000000000E+00  -5.77966511347907E-26
      5.77966511347907E-26   0.00000000000000E+00   4.34408939519443E-07   0.00000000000000E+00   3.62805653980573E-05
      0.00000000000000E+00   0.00000000000000E+00  -2.73278900424771E+01  -8.95267535560718E+00  -3.62805653980843E+01
     -3.70413160041053E-07   7.75424475455734E+00   4.02404992574426E+00   0.00000000000000E+00   0.00000000000000E+00
      3.68322675029781E+00   3.25973386477865E+01   3.62805653980843E+01  -6.39957794783888E-08
      7.76536157841103E+00
      1.50000000000000E+01   1.50000000000000E+01   0.00000000000000E+00   0.00000000000000E+00  -7.55762670254705E-26
      7.55762670254705E-26   0.00000000000000E+00   4.34330454005869E-07   0.00000000000000E+00   3.82838360576996E-05
      0.00000000000000E+00   0.00000000000000E+00  -2.87670745131930E+01  -9.51676154448471E+00  -3.82838360576777E+01
     -3.72256111647544E-07   8.05202777003508E+00   4.27675401641699E+00   0.00000000000000E+00   0.00000000000000E+00
      3.77403982464380E+00   3.45097962330342E+01   3.82838360576780E+01  -6.20743423583252E-08
      7.84294439533380E+00
      1.50000000000000E+01   1.50000000000000E+01   0.00000000000000E+00   0.00000000000000E+00  -6.97846631587466E-26
      6.97846631587466E-26   0.00000000000000E+00   4.34255347574301E-07   0.00000000000000E+00   4.01985562562389E-05
      0.00000000000000E+00   0.00000000000000E+00  -3.01404659219406E+01  -1.00580903342790E+01  -4.01985562562196E+01
     -3.74050056681423E-07   8.36766246696378E+00   4.52886799385006E+00   0.00000000000000E+00   0.00000000000000E+00
      3.85909499367975E+00   3.63394612625396E+01   4.01985562562194E+01  -6.02052908928763E-08
      7.91526393698297E+00
      1.50000000000000E+01   1.50000000000000E+01   0.00000000000000E+00   0.00000000000000E+00  -7.01945325184529E-26
      7.01945325184529E-26   0.00000000000000E+00   4.34182929697312E-07   0.00000000000000E+00   4.20424317489140E-05
      0.00000000000000E+00   0.00000000000000E+00  -3.14611645274966E+01  -1.05812672214229E+01  -4.20424317489195E+01
     -3.75824605078616E-07   8.71139236161597E+00   4.78064408150658E+00   0.00000000000000E+00   0.00000000000000E+00
      3.93949432724782E+00   3.81029374216714E+01   4.20424317489192E+01  -5.83583246186959E-08
      7.98307609087372E+00
      1.50000000000000E+01   1.50000000000000E+01   0.00000000000000E+00   0.00000000000000E+00  -8.39569777565356E-26
      8.39569777565356E-26   0.00000000000000E+00   4.34112781433703E-07   0.00000000000000E+00   4.38262555816631E-05
      0.00000000000000E+00   0.00000000000000E+00  -3.27371648830069E+01  -1.10890906986814E+01  -4.38262555816883E+01
     -3.77586948340008E-07   9.06914112387773E+00   5.03217588393341E+00   0.00000000000000E+00   0.00000000000000E+00
      4.01595050186999E+00   3.98103050798178E+01   4.38262555816878E+01  -5.65258330936952E-08
      8.04696820854960E+00
      1.50000000000000E+01   1.50000000000000E+01   0.00000000000000E+00   0.00000000000000E+00  -7.27974934221956E-26
      7.27974934221956E-26   0.00000000000000E+00   4.34044573792024E-07   0.00000000000000E+00   4.55585057458138E-05
      0.00000000000000E+00   0.00000000000000E+00  -3.39747463834381E+01  -1.15837593624397E+01  -4.55585057458778E+01
     -3.79338963938907E-07   9.43738530435229E+00   5.28350231144983E+00   0.00000000000000E+00   0.00000000000000E+00
      4.08901600101853E+00   4.14694897448589E+01   4.55585057458774E+01  -5.47056098531175E-08
      8.10741718563875E+00
      1.50000000000000E+01   1.50000000000000E+01   0.00000000000000E+00   0.00000000000000E+00  -7.50469883246061E-26
      7.50469883246061E-26   0.00000000000000E+00   4.33978030802555E-07   0.00000000000000E+00   4.72462881074045E-05
      0.00000000000000E+00   0.00000000000000E+00  -3.51791632294939E+01  -1.20671248778696E+01  -4.72462881073635E+01
     -3.81081421415025E-07   9.81509593851051E+00   5.53465810572335E+00   0.00000000000000E+00   0.00000000000000E+00
      4.15914571623882E+00   4.30871423911244E+01   4.72462881073632E+01  -5.28966093875289E-08
      8.16481374566873E+00
      1.50000000000000E+01   1.50000000000000E+01   0.00000000000000E+00   0.00000000000000E+00  -5.55379122229090E-26
      5.55379122229090E-26   0.00000000000000E+00   4.33912928257301E-07   0.00000000000000E+00   4.88953759251276E-05
      0.00000000000000E+00   0.00000000000000E+00  -3.63546809334141E+01  -1.25406949917021E+01  -4.88953759251162E+01
     -3.82814703784396E-07   1.02009815594539E+01   5.78567925311001E+00   0.00000000000000E+00   0.00000000000000E+00
      4.22671079490975E+00   4.46686651302061E+01   4.88953759251158E+01  -5.10982244729052E-08
      8.21947882629135E+00
      1.50000000000000E+01   1.50000000000000E+01   0.00000000000000E+00   0.00000000000000E+00  -6.35364244540516E-26
      6.35364244540516E-26   0.00000000000000E+00   4.33849094066396E-07   0.00000000000000E+00   5.05102120328361E-05
      0.00000000000000E+00   0.00000000000000E+00  -3.75045838202820E+01  -1.30056282125262E+01  -5.05102120328082E+01
     -3.84538817519764E-07   1.05931865763859E+01   6.03660085826412E+00   0.00000000000000E+00   0.00000000000000E+00
      4.29200195732351E+00   4.62182100754843E+01   5.05102120328078E+01  -4.93102765466313E-08
      8.27167691844499E+00
      1.50000000000000E+01   1.50000000000000E+01   0.00000000000000E+00   0.00000000000000E+00  -7.15832465493031E-26
      7.15832465493031E-26   0.00000000000000E+00   4.33786405383863E-07   0.00000000000000E+00   5.20939897903009E-05
      0.00000000000000E+00   0.00000000000000E+00  -3.86312395763683E+01  -1.34627502139377E+01  -5.20939897903060E+01
     -3.86253370495326E-07   1.09894676414709E+01   6.28745537023882E+00   0.00000000000000E+00   0.00000000000000E+00
      4.35523884457651E+00   4.77387509457294E+01   5.20939897903059E+01  -4.75330348885360E-08
      8.32162716994471E+00
      1.50000000000000E+01   1.50000000000000E+01   0.00000000000000E+00   0.00000000000000E+00  -6.54783511224592E-26
      6.54783511224592E-26   0.00000000000000E+00   4.33724781980624E-07   0.00000000000000E+00   5.36488280170346E-05
      0.00000000000000E+00   0.00000000000000E+00  -3.97362289794721E+01  -1.39125990375278E+01  -5.36488280169998E+01
     -3.87957452258492E-07   1.13874090436378E+01   6.53826871362951E+00   0.00000000000000E+00   0.00000000000000E+00
      4.41658227558900E+00   4.92322457414104E+01   5.36488280169994E+01  -4.57673297221313E-08
      8.36951359999896E+00
      1.50000000000000E+01   1.50000000000000E+01   0.00000000000000E+00   0.00000000000000E+00  -6.10036670558963E-26
      6.10036670558963E-26   0.00000000000000E+00   4.33664176041936E-07   0.00000000000000E+00   5.51760313330873E-05
      0.00000000000000E+00   0.00000000000000E+00  -4.08205345580307E+01  -1.43554967750853E+01  -5.51760313331160E+01
     -3.89649377192544E-07   1.17849097838778E+01   6.78906071025458E+00   0.00000000000000E+00   0.00000000000000E+00
      4.47615068614787E+00   5.06998806469676E+01   5.51760313331155E+01  -4.40147988493920E-08
      8.41549240726384E+00
      1.50000000000000E+01   1.50000000000000E+01   0.00000000000000E+00   0.00000000000000E+00  -5.85792278026051E-26
      5.85792278026051E-26   0.00000000000000E+00   4.33604568030876E-07   0.00000000000000E+00   5.66761966766240E-05
      0.00000000000000E+00   0.00000000000000E+00  -4.18846153594464E+01  -1.47915813171765E+01  -5.66761966766229E+01
     -3.91326153857583E-07   1.21800467627654E+01   7.03985187984463E+00   0.00000000000000E+00   0.00000000000000E+00
      4.53402481641207E+00   5.21421718602104E+01   5.66761966766224E+01  -4.22784141732936E-08
      8.45969560785870E+00
      1.50000000000000E+01   1.50000000000000E+01   0.00000000000000E+00   0.00000000000000E+00  -7.09063518098840E-26
      7.09063518098840E-26   0.00000000000000E+00   4.33545972797990E-07   0.00000000000000E+00   5.81490791088438E-05
      0.00000000000000E+00   0.00000000000000E+00  -4.29283056939293E+01  -1.52207734148807E+01  -5.81490791088100E+01
     -3.92982348454042E-07   1.25703932879922E+01   7.29067193499004E+00   0.00000000000000E+00   0.00000000000000E+00
      4.59024394310798E+00   5.35588351657017E+01   5.81490791088097E+01  -4.05636243439471E-08
      8.50223099181611E+00
      1.50000000000000E+01   1.50000000000000E+01   0.00000000000000E+00   0.00000000000000E+00  -7.70472807753959E-26
      7.70472807753959E-26   0.00000000000000E+00   4.33488451190635E-07   0.00000000000000E+00   5.95933170795522E-05
      0.00000000000000E+00   0.00000000000000E+00  -4.39506182499054E+01  -1.56426988296580E+01  -5.95933170795634E+01
     -3.94607911728733E-07   1.29518623512354E+01   7.54155355834648E+00   0.00000000000000E+00   0.00000000000000E+00
      4.64479717725445E+00   5.49485199023086E+01   5.95933170795630E+01  -3.88805394619010E-08
      8.54318728908042E+00
      1.50000000000000E+01   1.50000000000000E+01   0.00000000000000E+00   0.00000000000000E+00  -6.77156002303250E-26
      6.77156002303250E-26   0.00000000000000E+00   4.33432059497089E-07   0.00000000000000E+00   6.10077106668317E-05
      0.00000000000000E+00   0.00000000000000E+00  -4.49506826433514E+01  -1.60570280234873E+01  -6.10077106668388E+01
     -3.96186113980593E-07   1.33205366465819E+01   7.79243336867638E+00   0.00000000000000E+00   0.00000000000000E+00
      4.69766523907591E+00   5.63100454277629E+01   6.10077106668388E+01  -3.72459455164974E-08
      8.58267693558619E+00
      1.50000000000000E+01   1.50000000000000E+01   0.00000000000000E+00   0.00000000000000E+00  -7.24837233585082E-26
      7.24837233585082E-26   0.00000000000000E+00   4.33376643908750E-07   0.00000000000000E+00   6.23963711272161E-05
      0.00000000000000E+00   0.00000000000000E+00  -4.59314364126056E+01  -1.64649347146799E+01  -6.23963711272855E+01
     -3.97697366616935E-07   1.36892663429204E+01   8.04307308593754E+00   0.00000000000000E+00   0.00000000000000E+00
      4.74898577954502E+00   5.76473853477406E+01   6.23963711272856E+01  -3.56792772918138E-08
      8.62086878684289E+00
      1.50000000000000E+01   1.50000000000000E+01   0.00000000000000E+00   0.00000000000000E+00  -6.55721022757617E-26
      6.55721022757617E-26   0.00000000000000E+00   4.33321855582405E-07   0.00000000000000E+00   6.37681288072952E-05
      0.00000000000000E+00   0.00000000000000E+00  -4.68992110272205E+01  -1.68689177800251E+01  -6.37681288072456E+01
     -3.99109248278145E-07   1.40890155061523E+01   8.29346647275738E+00   0.00000000000000E+00   0.00000000000000E+00
      4.79912278939917E+00   5.89690060178468E+01   6.37681288072459E+01  -3.42126073042599E-08
      8.65790705368967E+00
      1.50000000000000E+01   1.50000000000000E+01   0.00000000000000E+00   0.00000000000000E+00  -6.34799783888068E-26
      6.34799783888068E-26   0.00000000000000E+00   4.33267395739201E-07   0.00000000000000E+00   6.51294384483845E-05
      0.00000000000000E+00   0.00000000000000E+00  -4.78593437793415E+01  -1.72700946690819E+01  -6.51294384484233E+01
     -4.00415122947003E-07   1.45183612735427E+01   8.54372457799183E+00   0.00000000000000E+00   0.00000000000000E+00
      4.84862367018007E+00   6.02808147782435E+01   6.51294384484236E+01  -3.28522727921971E-08
      8.69388945183925E+00
      1.50000000000000E+01   1.50000000000000E+01   0.00000000000000E+00   0.00000000000000E+00  -6.14708796179057E-26
      6.14708796179057E-26   0.00000000000000E+00   4.33213129956527E-07   0.00000000000000E+00   6.64829855194203E-05
      0.00000000000000E+00   0.00000000000000E+00  -4.88142214045802E+01  -1.76687641148697E+01  -6.64829855194499E+01
     -4.01684192346116E-07   1.49627370157260E+01   8.79394917895719E+00   0.00000000000000E+00   0.00000000000000E+00
      4.89769739498523E+00   6.15852881244653E+01   6.64829855194505E+01  -3.15289376104108E-08
      8.72888098715812E+00
      1.50000000000000E+01   1.50000000000000E+01   0.00000000000000E+00   0.00000000000000E+00  -7.70251556655411E-26
      7.70251556655411E-26   0.00000000000000E+00   4.33159047949339E-07   0.00000000000000E+00   6.78294618438247E-05
      0.00000000000000E+00   0.00000000000000E+00  -4.97640265337080E+01  -1.80654353101212E+01  -6.78294618438292E+01
     -4.02944355884607E-07   1.54103708028934E+01   9.04416525533998E+00   0.00000000000000E+00   0.00000000000000E+00
      4.94628502737918E+00   6.28831768164503E+01   6.78294618438294E+01  -3.02146920647301E-08
      8.76293557232450E+00
      1.50000000000000E+01   1.50000000000000E+01   0.00000000000000E+00   0.00000000000000E+00  -7.49399984540006E-26
      7.49399984540006E-26   0.00000000000000E+00   4.33105153570233E-07   0.00000000000000E+00   6.91690803332201E-05
      0.00000000000000E+00   0.00000000000000E+00  -5.07087005535259E+01  -1.84603797797565E+01  -6.91690803332824E+01
     -4.04198062820578E-07   1.58583624445982E+01   9.29437914428618E+00   0.00000000000000E+00   0.00000000000000E+00
      4.99435572198933E+00   6.41747246112933E+01   6.91690803332826E+01  -2.89070907496529E-08
      8.79610165803651E+00
      1.50000000000000E+01   1.50000000000000E+01   0.00000000000000E+00   0.00000000000000E+00  -6.95037057253179E-26
      6.95037057253179E-26   0.00000000000000E+00   4.33051447162563E-07   0.00000000000000E+00   7.05019689155696E-05
      0.00000000000000E+00   0.00000000000000E+00  -5.16482529600934E+01  -1.88537159555044E+01  -7.05019689155978E+01
     -4.05445612657584E-07   1.63060426573679E+01   9.54459090688737E+00   0.00000000000000E+00   0.00000000000000E+00
      5.04190897599546E+00   6.54600599396028E+01   7.05019689155982E+01  -2.76058345049783E-08
      8.82842395640801E+00
      1.50000000000000E+01   1.50000000000000E+01   0.00000000000000E+00   0.00000000000000E+00  -5.57007022229095E-26
      5.57007022229095E-26   0.00000000000000E+00   4.32997927409213E-07   0.00000000000000E+00   7.18282307408707E-05
      0.00000000000000E+00   0.00000000000000E+00  -5.25827248202376E+01  -1.92455059206981E+01  -7.18282307409357E+01
     -4.06687152031085E-07   1.67533758123314E+01   9.79480191011096E+00   0.00000000000000E+00   0.00000000000000E+00
      5.08895409951853E+00   6.67392766414172E+01   7.18282307409357E+01  -2.63107753781261E-08
      8.85994356043683E+00
      1.50000000000000E+01   1.50000000000000E+01   0.00000000000000E+00   0.00000000000000E+00  -6.66530361653992E-26
      6.66530361653992E-26   0.00000000000000E+00   4.32944593005539E-07   0.00000000000000E+00   7.31479424363817E-05
      0.00000000000000E+00   0.00000000000000E+00  -5.35121574998595E+01  -1.96357849364732E+01  -7.31479424363327E+01
     -4.07922679963295E-07   1.72001468755168E+01   1.00450119537496E+01   0.00000000000000E+00   0.00000000000000E+00
      5.13550181317887E+00   6.80124406231536E+01   7.31479424363325E+01  -2.50219130422426E-08
      8.89069869385792E+00
      1.50000000000000E+01   1.50000000000000E+01   0.00000000000000E+00   0.00000000000000E+00  -6.71415292139704E-26