DF-ISE text

Info {
  version   = 1.0
  type      = xyplot
  datasets  = [
    "time"
    "v(gate)" "v(sw)" "v(bus)" "vdiff(gate,0)" "vdiff(sw,bus)"
    "i(vdc,bus)" "i(vgsrc,gate)" "i(lload,bus)" "i(lload,sw)" "i(Q1,sw)"
    "i(Q1,gate)" "i(Q1,0)" "i(Q2,bus)" "i(Q2,sw)" "i(Q2,gate)" ]
  functions = [
    Time
    Voltage Voltage Voltage Voltage Voltage
    Current Current Current Current Current
    Current Current Current Current Current ]
}

Data {
      0.00000000000000E+00
      0.00000000000000E+00   5.00000000000000E+01   5.00000000000000E+01   0.00000000000000E+00   0.00000000000000E+00
      2.61186746493791E-07   1.22882696210677E-22  -2.61186746493791E-07   2.61186746493791E-07  -2.56186744560749E-07
      0.00000000000000E+00   2.56186744560749E-07   3.87642217075382E-15  -3.87642217075381E-15   0.00000000000000E+00
      6.75000000000000E-09
      0.00000000000000E+00   5.00000000154388E+01   5.00000000000000E+01   0.00000000000000E+00   1.54388075657153E-08
      2.63826766398657E-07  -6.68494813316278E-12  -2.61181528058436E-07   2.61181528058436E-07  -2.59123114125088E-07
      1.72310397966629E-11   2.59105887532689E-07  -2.60474420935483E-09   2.60496306640136E-09   0.00000000000000E+00
      1.35000000000000E-08
      0.00000000000000E+00   5.00000000221250E+01   5.00000000000000E+01   0.00000000000000E+00   2.21250147092178E-08
      1.36536057432745E-07  -1.20406042685750E-09  -2.61176142794966E-07   2.61176142794966E-07  -2.93262921840492E-07
      1.37114478830975E-09   2.91891817720397E-07   9.42283337677922E-08  -9.42288479634031E-08   0.00000000000000E+00
      2.02500000000000E-08
      0.00000000000000E+00   5.00000000180356E+01   5.00000000000000E+01   0.00000000000000E+00   1.80356636292345E-08
      2.61299486643685E-07   1.10894663513357E-10  -2.61170212517788E-07   2.61170212517788E-07  -2.57950201538403E-07
      9.02098559794555E-12   2.57941187375577E-07   7.35261283537059E-09  -7.35295179275464E-09   0.00000000000000E+00
      2.70000000000000E-08
      0.00000000000000E+00   5.00000004866943E+01   5.00000000000000E+01   0.00000000000000E+00   4.86694261780940E-07
     -8.25962216391691E-07   1.38670430781375E-08  -2.61004415838167E-07   2.61004415838167E-07   8.32411787594954E-07
     -1.37767408673878E-08  -8.18635060758160E-07   1.08763440994957E-06  -1.08764589362152E-06   0.00000000000000E+00
      3.37500000000000E-08
      0.00000000000000E+00   5.00000013117377E+01   5.00000000000000E+01   0.00000000000000E+00   1.31173766959591E-06
     -2.82613304345097E-06  -8.40577963817080E-08  -2.77119657872749E-07   2.77119657872749E-07   2.83129308796567E-06
      8.40830401183332E-08  -2.91537615739689E-06   3.10328049387892E-06  -3.10328029699873E-06   0.00000000000000E+00
      4.05000000000000E-08
      0.00000000000000E+00   5.00000009020550E+01   5.00000000000000E+01   0.00000000000000E+00   9.02055042217853E-07
      2.25363109311105E-07   2.28322807318676E-10  -2.76796137952491E-07   2.76796137952491E-07  -2.20250264833288E-07
     -2.14379049713743E-10   2.20464631324272E-07   5.14677197276593E-08  -5.14677270730325E-08   0.00000000000000E+00
      4.72500000000000E-08
      0.00000000000000E+00   5.00000008671112E+01   5.00000000000000E+01   0.00000000000000E+00   8.67111189961633E-07
      2.35489445064644E-07   2.25110316732152E-10  -2.76499463485630E-07   2.76499463485630E-07  -2.30433043568681E-07
     -2.17809859372453E-10   2.30650853203994E-07   4.10254911384592E-08  -4.10256209698498E-08   0.00000000000000E+00
      5.40000000000000E-08
      0.00000000000000E+00   5.00000008383615E+01   5.00000000000000E+01   0.00000000000000E+00   8.38361536636967E-07
      2.37515881894550E-07   2.02374425769413E-10  -2.76214231897941E-07   2.76214231897941E-07  -2.32483429512265E-07
     -2.02494590135773E-10   2.32685921423382E-07   3.87071266883931E-08  -3.87071372692780E-08   0.00000000000000E+00
      6.07500000000000E-08
      0.00000000000000E+00   5.00000008120376E+01   5.00000000000000E+01   0.00000000000000E+00   8.12037555419920E-07
      2.39215456523474E-07   2.05608460572406E-10  -2.75938799584511E-07   2.75938799584511E-07  -2.34146132556079E-07
     -1.88195442566092E-10   2.34334324395423E-07   3.67400442755012E-08  -3.67403359975459E-08   0.00000000000000E+00
      6.75000000000000E-08
      0.00000000000000E+00   5.00000007879837E+01   5.00000000000000E+01   0.00000000000000E+00   7.87983715611063E-07
      2.40686764884638E-07   1.80026063518698E-10  -2.75672855080068E-07   2.75672855080068E-07  -2.35673794977537E-07
     -1.74785316520160E-10   2.35848581772367E-07   3.49892585254105E-08  -3.49891964607369E-08   0.00000000000000E+00
      7.42500000000000E-08
      0.00000000000000E+00   5.00000007657275E+01   5.00000000000000E+01   0.00000000000000E+00   7.65727534712823E-07
      2.42102645720388E-07   1.65448893200808E-10  -2.75414422037696E-07   2.75414422037696E-07  -2.37089290880728E-07
     -1.62429945161261E-10   2.37251719107391E-07   3.33152068312303E-08  -3.33151698639081E-08   0.00000000000000E+00
      8.10000000000000E-08
      0.00000000000000E+00   5.00000007451460E+01   5.00000000000000E+01   0.00000000000000E+00   7.45145953828796E-07
      2.43422743693966E-07   1.54967487114871E-10  -2.75162935276952E-07   2.75162935276952E-07  -2.38408750030721E-07
     -1.50903934019189E-10   2.38559655287958E-07   3.17442553618125E-08  -3.17443617966988E-08   0.00000000000000E+00
      8.77500000000000E-08
      0.00000000000000E+00   5.00000007261232E+01   5.00000000000000E+01   0.00000000000000E+00   7.26123211336471E-07
      2.44652114953387E-07   1.43445481396060E-10  -2.74917868693826E-07   2.74917868693826E-07  -2.39638382171953E-07
     -1.40164004489782E-10   2.39778546925443E-07   3.02697041670512E-08  -3.02695479169771E-08   0.00000000000000E+00
      9.45000000000000E-08
      0.00000000000000E+00   5.00000007085515E+01   5.00000000000000E+01   0.00000000000000E+00   7.08551489481124E-07
      2.45797152267536E-07   1.31350906896848E-10  -2.74678732566239E-07   2.74678732566239E-07  -2.40784205698769E-07
     -1.30159992512917E-10   2.40914364609482E-07   2.88852457865511E-08  -2.88853754734112E-08   0.00000000000000E+00
      1.01250000000000E-07
      3.75000000000008E-01   5.00010118700172E+01   5.00000000000000E+01   3.75000000000008E-01   1.01187001715886E-03
     -7.41347868894210E-03   5.84580319670871E+00  -2.12510753739678E-07   2.12510753739678E-07   7.41348425979736E-03
     -5.84580319667700E+00   5.83838971241733E+00   7.41369159055551E-03  -7.41369158831931E-03   0.00000000000000E+00
      1.08000000000000E-07
      2.40000000000001E+00   5.00027426420755E+01   5.00000000000000E+01   2.40000000000001E+00   2.74264207546793E-03
     -5.82364792551775E-03   5.48422339494097E+00   4.31536959724355E-07  -4.31536959724355E-07   5.82365267696976E-03
     -5.48422339492912E+00   5.47839974225221E+00   5.82321626851244E-03  -5.82321626940349E-03   0.00000000000000E+00
      1.14750000000000E-07
      4.42500000000001E+00   5.00046034058071E+01   5.00000000000000E+01   4.42500000000001E+00   4.60340580713847E-03
     -6.01849271679694E-03   5.20733703949375E+00   1.70003779189148E-06  -1.70003779189148E-06   6.01849755952259E-03
     -5.20733703948618E+00   5.20131854192668E+00   6.01679256752712E-03  -6.01679256847186E-03   0.00000000000000E+00
      1.21500000000000E-07
      6.45000000000001E+00   5.00058706493347E+01   5.00000000000000E+01   6.45000000000001E+00   5.87064933468184E-03
     -2.80884565265137E-03   5.32657910563856E+00   3.57309845245244E-06  -3.57309845245244E-06   2.80885037036388E-03
     -5.32657910564644E+00   5.32377025527625E+00   2.80527238539539E-03  -2.80527238638663E-03   0.00000000000000E+00
      1.28250000000000E-07
      8.47500000000001E+00   4.87324870461461E+01   5.00000000000000E+01   8.47500000000001E+00  -1.26751295385387E+00
      7.67267008347307E+00   1.40836341640017E+01  -8.63426171638099E-05   8.63426171638099E-05  -7.67267007668488E+00
     -1.40836341638820E+01   2.17563042405671E+01  -7.67258374044152E+00   7.67258374041019E+00   0.00000000000000E+00
      1.35000000000000E-07
      1.05000000000000E+01   2.17493302342828E+01   5.00000000000000E+01   1.05000000000000E+01  -2.82506697657172E+01
      2.42424339233882E+01   1.31203144449834E+01  -3.79701651958670E-03   3.79701651958670E-03  -2.42424339217731E+01
     -1.31203144447771E+01   3.73627483665439E+01  -2.42386369067894E+01   2.42386369067984E+01   0.00000000000000E+00
      1.41750000000000E-07
      1.25250000000000E+01   1.34289804758303E+00   5.00000000000000E+01   1.25250000000000E+01  -4.86571019524170E+01
      1.39824176310799E+00   8.94397677821141E+00  -1.82587832898062E-02   1.82587832898062E-02  -1.39824176344351E+00
     -8.94397677826791E+00   1.03422185417113E+01  -1.37998297990868E+00   1.37998297990870E+00   0.00000000000000E+00
      1.48500000000000E-07
      1.45500000000000E+01   7.35795561250860E-01   5.00000000000000E+01   1.45500000000000E+01  -4.92642044387491E+01
      9.01535142830849E-02   8.62762375696653E+00  -3.48408634895248E-02   3.48408634895248E-02  -9.01535062256982E-02
     -8.62762375697784E+00   8.71777726320343E+00  -5.53126508173351E-02   5.53126508173067E-02   0.00000000000000E+00
      1.55250000000000E-07
      1.50000000000000E+01   6.78078539324795E-01   5.00000000000000E+01   1.50000000000000E+01  -4.93219214606752E+01
      7.28398478171898E-02   1.31517594895394E-03  -5.14808441462297E-02   5.14808441462297E-02  -7.28398081444798E-02
     -1.31517594689636E-03   7.41549840914403E-02  -2.13590036629128E-02   2.13590036629160E-02   0.00000000000000E+00
      1.62000000000000E-07
      1.50000000000000E+01   6.55644419321608E-01   5.00000000000000E+01   1.50000000000000E+01  -4.93443555806784E+01
      8.70125595196512E-02  -1.64055776177533E-06  -6.81323482560427E-02   6.81323482560427E-02  -8.70125135650001E-02
      1.64055643100567E-06   8.70108730086050E-02  -1.88802112411857E-02   1.88802112411849E-02   0.00000000000000E+00
      1.68750000000000E-07
      1.50000000000000E+01   6.32080339477373E-01   5.00000000000000E+01   1.50000000000000E+01  -4.93679196605226E+01
      1.07663444620532E-01  -1.53313568963758E-04  -8.47920769168798E-02   8.47920769168798E-02  -1.07663400376999E-01
      1.53313568757015E-04   1.07510086808228E-01  -2.28713677044953E-02   2.28713677044958E-02   0.00000000000000E+00
      1.75500000000000E-07
      1.50000000000000E+01   6.03673183786127E-01   5.00000000000000E+01   1.50000000000000E+01  -4.93963268162139E+01
      1.29221198756909E-01  -2.04736517822040E-04  -1.01462370890298E-01   1.01462370890298E-01  -1.29221157062145E-01
      2.04736519023957E-04   1.29016420543119E-01  -2.77588278778909E-02   2.77588278778923E-02   0.00000000000000E+00
      1.82250000000000E-07
      1.50000000000000E+01   5.72117655463583E-01   5.00000000000000E+01   1.50000000000000E+01  -4.94278823445364E+01
      1.46703581175493E-01  -1.43753979312148E-04  -1.18144281181579E-01   1.18144281181579E-01  -1.46703541736250E-01
      1.43753979125082E-04   1.46559787757119E-01  -2.85592999947669E-02   2.85592999947666E-02   0.00000000000000E+00
      1.89000000000000E-07
      1.50000000000000E+01   5.41120434773738E-01   5.00000000000000E+01   1.50000000000000E+01  -4.94588795652263E+01
      1.62951560901282E-01  -1.27612616537449E-04  -1.34836653034843E-01   1.34836653034843E-01  -1.62951523288705E-01
      1.27612616524908E-04   1.62823910672195E-01  -2.81149078688887E-02   2.81149078688903E-02   0.00000000000000E+00
      1.95750000000000E-07
      1.50000000000000E+01   5.12522045405248E-01   5.00000000000000E+01   1.50000000000000E+01  -4.94874779545948E+01
      1.77736706450731E-01  -1.15644356127767E-04  -1.51538676844519E-01   1.51538676844519E-01  -1.77736670374585E-01
      1.15644355909224E-04   1.77621026018668E-01  -2.61980296079573E-02   2.61980296079537E-02   0.00000000000000E+00
      2.02500000000000E-07
      1.50000000000000E+01   4.86875532996035E-01   5.00000000000000E+01   1.50000000000000E+01  -4.95131244670040E+01
      1.92140339243600E-01  -1.11141032780425E-04  -1.68249356352133E-01   1.68249356352133E-01  -1.92140304551583E-01
      1.11141032902425E-04   1.92029163518688E-01  -2.38909828923038E-02   2.38909828923081E-02   0.00000000000000E+00
      2.09250000000000E-07
      1.50000000000000E+01   4.64177478071913E-01   5.00000000000000E+01   1.50000000000000E+01  -4.95358225219281E+01
      2.06583649625772E-01  -1.10547709218948E-04  -1.84967696453283E-01   1.84967696453283E-01  -2.06583616231113E-01
      1.10547709179217E-04   2.06473068521928E-01  -2.16159531740758E-02   2.16159531740744E-02   0.00000000000000E+00
      2.16000000000000E-07
      1.50000000000000E+01   4.44254640212780E-01   5.00000000000000E+01   1.50000000000000E+01  -4.95557453597872E+01
      2.21184283184027E-01  -1.11398436840830E-04  -2.01692760512212E-01   2.01692760512212E-01  -2.21184251028577E-01
      1.11398436893749E-04   2.21072852591688E-01  -1.94915226707483E-02   1.94915226707471E-02   0.00000000000000E+00
      2.22750000000000E-07
      1.50000000000000E+01   4.26896871623568E-01   5.00000000000000E+01   1.50000000000000E+01  -4.95731031283764E+01
      2.35962944279233E-01  -1.12655625288485E-04  -2.18423682818039E-01   2.18423682818039E-01  -2.35962913320090E-01
      1.12655625163504E-04   2.35850257694930E-01  -1.75392614612216E-02   1.75392614612230E-02   0.00000000000000E+00
      2.29500000000000E-07
      1.50000000000000E+01   4.11411349504632E-01   5.00000000000000E+01   1.50000000000000E+01  -4.95885886504954E+01
      2.50876445564585E-01  -1.13986914115066E-04  -2.35158709419381E-01   2.35158709419381E-01  -2.50876415756107E-01
      1.13986913800824E-04   2.50762428842308E-01  -1.57177361467354E-02   1.57177361467344E-02   0.00000000000000E+00
      2.36250000000000E-07
      1.50000000000000E+01   3.98616827942645E-01   5.00000000000000E+01   1.50000000000000E+01  -4.96013831720574E+01
      2.65990037206875E-01  -1.15220229139935E-04  -2.51899176239950E-01   2.51899176239950E-01  -2.65990008517126E-01
      1.15220228882059E-04   2.65874788288229E-01  -1.40908609668062E-02   1.40908609668064E-02   0.00000000000000E+00
      2.43000000000000E-07
      1.50000000000000E+01   3.87810991517588E-01   5.00000000000000E+01   1.50000000000000E+01  -4.96121890084824E+01
      2.81242043282153E-01  -1.16315782772429E-04  -2.68643290030313E-01   2.68643290030313E-01  -2.81242015659499E-01
      1.16315782560539E-04   2.81125699876930E-01  -1.25987532524905E-02   1.25987532524906E-02   0.00000000000000E+00
      2.49750000000000E-07
      1.50000000000000E+01   3.78834864250560E-01   5.00000000000000E+01   1.50000000000000E+01  -4.96211651357494E+01
      2.96622435352979E-01  -1.17323305368503E-04  -2.85390433263628E-01   2.85390433263628E-01  -2.96622408773484E-01
      1.17323305244342E-04   2.96505085468244E-01  -1.12320020895490E-02   1.12320020895503E-02   0.00000000000000E+00
      2.56500000000000E-07
      1.50000000000000E+01   3.71543574669800E-01   5.00000000000000E+01   1.50000000000000E+01  -4.96284564253302E+01
      3.12119497104104E-01  -1.18240881693953E-04  -3.02140037307177E-01   3.02140037307177E-01  -3.12119471521516E-01
      1.18240881722752E-04   3.12001230639800E-01  -9.97945979761915E-03   9.97945979761840E-03   0.00000000000000E+00
      2.63250000000000E-07
      1.50000000000000E+01   3.65804931692770E-01   5.00000000000000E+01   1.50000000000000E+01  -4.96341950683072E+01
      3.27722389230778E-01  -1.19074120665602E-04  -3.18891578142731E-01   3.18891578142731E-01  -3.27722364615825E-01
      1.19074120562188E-04   3.27603290495256E-01  -8.83081108890355E-03   8.83081108890246E-03   0.00000000000000E+00
      2.70000000000000E-07
      1.50000000000000E+01   3.61498069531747E-01   5.00000000000000E+01   1.50000000000000E+01  -4.96385019304683E+01
      3.43421350962067E-01  -1.19830817262966E-04  -3.35644572544264E-01   3.35644572544264E-01  -3.43421327279952E-01
      1.19830817145389E-04   3.43301496462821E-01  -7.77677841785653E-03   7.77677841785747E-03   0.00000000000000E+00
      2.76750000000000E-07
      1.50000000000000E+01   3.58512240077082E-01   5.00000000000000E+01   1.50000000000000E+01  -4.96414877599229E+01
      3.59207585789926E-01  -1.20518397956606E-04  -3.52398574663238E-01   3.52398574663238E-01  -3.59207563002922E-01
      1.20518398207789E-04   3.59087044604695E-01  -6.80901112818423E-03   6.80901112818360E-03   0.00000000000000E+00
      2.83500000000000E-07
      1.50000000000000E+01   3.56745761648104E-01   5.00000000000000E+01   1.50000000000000E+01  -4.96432542383519E+01
      3.75073143225758E-01  -1.21143496142071E-04  -3.69153172968682E-01   3.69153172968682E-01  -3.75073121306716E-01
      1.21143495974930E-04   3.74951977810735E-01  -5.91997025791342E-03   5.91997025791335E-03   0.00000000000000E+00
      2.90250000000000E-07
      1.50000000000000E+01   3.56105105589383E-01   5.00000000000000E+01   1.50000000000000E+01  -4.96438948944106E+01
      3.91010821979048E-01  -1.21711998818841E-04  -3.85907987495545E-01   3.85907987495545E-01  -3.91010800890554E-01
      1.21711998781763E-04   3.90889088891775E-01  -5.10283448366520E-03   5.10283448366666E-03   0.00000000000000E+00
      2.97000000000000E-07
      1.50000000000000E+01   3.56504099993166E-01   5.00000000000000E+01   1.50000000000000E+01  -4.96434959000068E+01
      4.07014091387130E-01  -1.22229170690076E-04  -4.02662667361797E-01   4.02662667361797E-01  -4.07014071101636E-01
      1.22229170316180E-04   4.06891841931344E-01  -4.35142402534616E-03   4.35142402534627E-03   0.00000000000000E+00
      3.03750000000000E-07
      1.50000000000000E+01   3.57863232332380E-01   5.00000000000000E+01   1.50000000000000E+01  -4.96421367676676E+01
      4.23077026068004E-01  -1.22699751987255E-04  -4.19416888520885E-01   4.19416888520885E-01  -4.23077006555921E-01
      1.22699751760548E-04   4.22954306804145E-01  -3.66013754389487E-03   3.66013754389441E-03   0.00000000000000E+00
      3.10500000000000E-07
      1.50000000000000E+01   3.60109035836898E-01   5.00000000000000E+01   1.50000000000000E+01  -4.96398909641631E+01
      4.39194249788359E-01  -1.23128038166603E-04  -4.36170351721290E-01   4.36170351721290E-01  -4.39194231013991E-01
      1.23128038258140E-04   4.39071102975725E-01  -3.02389805874523E-03   3.02389805874452E-03   0.00000000000000E+00
      3.17250000000000E-07
      1.50000000000000E+01   3.63173547069769E-01   5.00000000000000E+01   1.50000000000000E+01  -4.96368264529302E+01
      4.55360885759783E-01  -1.23517933177781E-04  -4.52922780649154E-01   4.52922780649154E-01  -4.55360867722766E-01
      1.23517932906204E-04   4.55237349789870E-01  -2.43810512331885E-03   2.43810512332027E-03   0.00000000000000E+00
      3.24000000000000E-07
      1.50000000000000E+01   3.66993824317320E-01   5.00000000000000E+01   1.50000000000000E+01  -4.96330061756827E+01
      4.71572511740497E-01  -1.23872986302499E-04  -4.69673920233447E-01   4.69673920233447E-01  -4.71572494373856E-01
      1.23872986102272E-04   4.71448621387751E-01  -1.89859149727119E-03   1.89859149727014E-03   0.00000000000000E+00
      3.30750000000000E-07
      1.50000000000000E+01   3.71511518169013E-01   5.00000000000000E+01   1.50000000000000E+01  -4.96284884818310E+01
      4.87825118401338E-01  -1.24196425101207E-04  -4.86423535096065E-01   4.86423535096065E-01  -4.87825101697829E-01
      1.24196425374427E-04   4.87700905272445E-01  -1.40158329735372E-03   1.40158329735364E-03   0.00000000000000E+00
      3.37500000000000E-07
      1.50000000000000E+01   3.76672487080651E-01   5.00000000000000E+01   1.50000000000000E+01  -4.96233275129193E+01
      5.04115071219553E-01  -1.24491180708617E-04  -5.03171408131675E-01   5.03171408131675E-01  -5.04115055195611E-01
      1.24491180704078E-04   5.03990564014910E-01  -9.43663114061290E-04   9.43663114060694E-04   0.00000000000000E+00
      3.44250000000000E-07
      1.50000000000000E+01   3.82426451839664E-01   5.00000000000000E+01   1.50000000000000E+01  -4.96175735481603E+01
      5.20439075097505E-01  -1.24759906676978E-04  -5.19917339204179E-01   5.19917339204179E-01  -5.20439059651574E-01
      1.24759906459559E-04   5.20314299745112E-01  -5.21735885420862E-04   5.21735885422587E-04   0.00000000000000E+00
      3.51000000000000E-07
      1.50000000000000E+01   3.88726683808360E-01   5.00000000000000E+01   1.50000000000000E+01  -4.96112733161916E+01
      5.36794141397616E-01  -1.25005004103119E-04  -5.36661143948394E-01   5.36661143948394E-01  -5.36794126551990E-01
      1.25005003944343E-04   5.36669121548061E-01  -1.32997448576633E-04   1.32997448576175E-04   0.00000000000000E+00
      3.57750000000000E-07
      1.50000000000000E+01   3.95529722525833E-01   5.00000000000000E+01   1.50000000000000E+01  -4.96044702774742E+01
      5.53177558414417E-01  -1.25228641551320E-04  -5.53402652667041E-01   5.53402652667041E-01  -5.53177544137241E-01
      1.25228641565045E-04   5.53052315495674E-01   2.25094254090859E-04  -2.25094254090705E-04   0.00000000000000E+00
      3.64500000000000E-07
      1.50000000000000E+01   4.02795118873874E-01   5.00000000000000E+01   1.50000000000000E+01  -4.95972048811261E+01
      5.69586863957946E-01  -1.25432776550569E-04  -5.70141709314422E-01   5.70141709314422E-01  -5.69586850234635E-01
      1.25432776442227E-04   5.69461417458190E-01   5.54845351023183E-04  -5.54845351023879E-04   0.00000000000000E+00
      3.71250000000000E-07
      1.50000000000000E+01   4.10485200461279E-01   5.00000000000000E+01   1.50000000000000E+01  -4.95895147995387E+01
      5.86019820892794E-01  -1.25619174686430E-04  -5.86878170559266E-01   5.86878170559266E-01  -5.86019807690803E-01
      1.25619174112788E-04   5.85894188516683E-01   8.58349671394513E-04  -8.58349671393381E-04   0.00000000000000E+00
      3.78000000000000E-07
      1.50000000000000E+01   4.18564856239295E-01   5.00000000000000E+01   1.50000000000000E+01  -4.95814351437607E+01
      6.02474395015657E-01  -1.25789428579483E-04  -6.03611904920285E-01   6.03611904920285E-01  -6.02474382322918E-01
      1.25789428238620E-04   6.02348592894677E-01   1.13750990631773E-03  -1.13750990631693E-03   0.00000000000000E+00
      3.84750000000000E-07
      1.50000000000000E+01   4.27001337635701E-01   5.00000000000000E+01   1.50000000000000E+01  -4.95729986623643E+01
      6.18948735525311E-01  -1.25944979658190E-04  -6.20342791968833E-01   6.20342791968833E-01  -6.18948723322680E-01
      1.25944979289332E-04   6.18822778343408E-01   1.39405643893615E-03  -1.39405643893704E-03   0.00000000000000E+00
      3.91500000000000E-07
      1.50000000000000E+01   4.35764073639088E-01   5.00000000000000E+01   1.50000000000000E+01  -4.95642359263609E+01
      6.35441157657449E-01  -1.26087132381958E-04  -6.37070721593980E-01   6.37070721593980E-01  -6.35441145923501E-01
      1.26087132100799E-04   6.35315058791390E-01   1.62956393848410E-03  -1.62956393848566E-03   0.00000000000000E+00
      3.98250000000000E-07
      1.50000000000000E+01   4.44824497348607E-01   5.00000000000000E+01   1.50000000000000E+01  -4.95551755026514E+01
      6.51950127494256E-01  -1.26217072583642E-04  -6.53795593326125E-01   6.53795593326125E-01  -6.51950116210886E-01
      1.26217072644774E-04   6.51823899138260E-01   1.84546583213148E-03  -1.84546583213165E-03   0.00000000000000E+00
      4.05000000000000E-07
      1.50000000000000E+01   4.54155881485861E-01   5.00000000000000E+01   1.50000000000000E+01  -4.95458441185141E+01
      6.68474248994083E-01  -1.26335884718420E-04  -6.70517315716123E-01   6.70517315716123E-01  -6.68474238143869E-01
      1.26335884570394E-04   6.68347902259290E-01   2.04306672470228E-03  -2.04306672470108E-03   0.00000000000000E+00
      4.11750000000000E-07
      1.50000000000000E+01   4.63733180164400E-01   5.00000000000000E+01   1.50000000000000E+01  -4.95362668198356E+01
      6.85012252983912E-01  -1.26444565266803E-04  -6.87235805767818E-01   6.87235805767818E-01  -6.85012242547980E-01
      1.26444564855291E-04   6.84885797983136E-01   2.22355278678533E-03  -2.22355278678642E-03   0.00000000000000E+00
      4.18500000000000E-07
      1.50000000000000E+01   4.73532873938986E-01   5.00000000000000E+01   1.50000000000000E+01  -4.95264671260610E+01
      7.01562988341456E-01  -1.26544039940250E-04  -7.03950988422863E-01   7.03950988422863E-01  -7.01562978312905E-01
      1.26544040153915E-04   7.01436434272743E-01   2.38800008218252E-03  -2.38800008218060E-03   0.00000000000000E+00
      4.25249999999999E-07
      1.50000000000000E+01   4.83532814588157E-01   5.00000000000000E+01   1.50000000000000E+01  -4.95164671854118E+01
      7.18125415393232E-01  -1.26635183696187E-04  -7.20662796097940E-01   7.20662796097940E-01  -7.18125405750078E-01
      1.26635183507653E-04   7.17998770566571E-01   2.53738070536204E-03  -2.53738070536316E-03   0.00000000000000E+00
      4.31999999999999E-07
      1.50000000000000E+01   4.93712065334621E-01   5.00000000000000E+01   1.50000000000000E+01  -4.95062879346654E+01
      7.34698601767764E-01  -1.26718833592840E-04  -7.37371168275889E-01   7.37371168275889E-01  -7.34698592498339E-01
      1.26718833204361E-04   7.34571873665129E-01   2.67256650752129E-03  -2.67256650752198E-03   0.00000000000000E+00
      4.38749999999999E-07
      1.50000000000000E+01   5.04050731035623E-01   5.00000000000000E+01   1.50000000000000E+01  -4.94959492689644E+01
      7.51281721109240E-01  -1.26795813425377E-04  -7.54076051154165E-01   7.54076051154165E-01  -7.51281712206492E-01
      1.26795813581123E-04   7.51154916392905E-01   2.79433003429460E-03  -2.79433003429099E-03   0.00000000000000E+00
      4.45499999999999E-07
      1.50000000000000E+01   5.14529771337762E-01   5.00000000000000E+01   1.50000000000000E+01  -4.94854702286622E+01
      7.67874055216684E-01  -1.26866960962261E-04  -7.70777397356338E-01   7.70777397356338E-01  -7.67874046648591E-01
      1.26866960558592E-04   7.67747179688043E-01   2.90334213964230E-03  -2.90334213964559E-03   0.00000000000000E+00
      4.52249999999999E-07
      1.50000000000000E+01   5.25105725451737E-01   5.00000000000000E+01   1.50000000000000E+01  -4.94748942745483E+01
      7.84473312231014E-01  -1.26941358699638E-04  -7.87475969322719E-01   7.87475969322719E-01  -7.84473303998209E-01
      1.26941357924024E-04   7.84346362640268E-01   3.00265708997046E-03  -3.00265708996334E-03   0.00000000000000E+00
      4.58999999999999E-07
      1.50000000000000E+01   5.35812840254446E-01   5.00000000000000E+01   1.50000000000000E+01  -4.94641871597456E+01
      8.01082960628291E-01  -1.26997082417207E-04  -8.04170132489133E-01   8.04170132489133E-01  -8.01082952703677E-01
      1.26997081975181E-04   8.00955955621709E-01   3.08717186216104E-03  -3.08717186216115E-03   0.00000000000000E+00
      4.65749999999999E-07
      1.50000000000000E+01   5.46605862107001E-01   5.00000000000000E+01   1.50000000000000E+01  -4.94533941378930E+01
      8.17700032284819E-01  -1.27055920472249E-04  -8.20860653010672E-01   8.20860653010672E-01  -8.17700024669361E-01
      1.27055920276487E-04   8.17572968749072E-01   3.16062072497912E-03  -3.16062072497866E-03   0.00000000000000E+00
      4.72499999999999E-07
      1.50000000000000E+01   5.57466576635591E-01   5.00000000000000E+01   1.50000000000000E+01  -4.94425334233644E+01
      8.34324667255168E-01  -1.27113261490969E-04  -8.37547508041057E-01   8.37547508041057E-01  -8.34324659925989E-01
      1.27113261045548E-04   8.34197546664950E-01   3.22284078982076E-03  -3.22284078982007E-03   0.00000000000000E+00
      4.79249999999999E-07
      1.50000000000000E+01   5.68376025242487E-01   5.00000000000000E+01   1.50000000000000E+01  -4.94316239747575E+01
      8.50956960451160E-01  -1.27170668164701E-04  -8.54230681132538E-01   8.54230681132538E-01  -8.50956953410336E-01
      1.27170668227820E-04   8.50829782742099E-01   3.27372068085612E-03  -3.27372068085796E-03   0.00000000000000E+00
      4.85999999999999E-07
      1.50000000000000E+01   5.79313897781403E-01   5.00000000000000E+01   1.50000000000000E+01  -4.94206861022186E+01
      8.67597206388442E-01  -1.27229854028597E-04  -8.70910162692037E-01   8.70910162692037E-01  -8.67597199622178E-01
      1.27229853717252E-04   8.67469969768464E-01   3.31295630369763E-03  -3.31295630369873E-03   0.00000000000000E+00
      4.92749999999999E-07
      1.50000000000000E+01   5.90257799580650E-01   5.00000000000000E+01   1.50000000000000E+01  -4.94097422004194E+01
      8.84245999623022E-01  -1.27293048410421E-04  -8.87585950684678E-01   8.87585950684678E-01  -8.84245993120893E-01
      1.27293048489710E-04   8.84118700072426E-01   3.33995105736026E-03  -3.33995105735933E-03   0.00000000000000E+00
      4.99499999999999E-07
      1.50000000000000E+01   6.01182360768474E-01   5.00000000000000E+01   1.50000000000000E+01  -4.93988176392315E+01
      9.00904300745861E-01  -1.27362970257079E-04  -9.04258051637919E-01   9.04258051637919E-01  -9.00904294487384E-01
      1.27362969850476E-04   9.00776931517520E-01   3.35375089321372E-03  -3.35375089321209E-03   0.00000000000000E+00
      5.06249999999999E-07
      1.50000000000000E+01   6.12058199666759E-01   5.00000000000000E+01   1.50000000000000E+01  -4.93879418003332E+01
      9.17573495054316E-01  -1.27442786935107E-04  -9.20926481995531E-01   9.20926481995531E-01  -9.17573489039322E-01
      1.27442787032394E-04   9.17446046252285E-01   3.35298694132585E-03  -3.35298694132767E-03   0.00000000000000E+00
      5.12999999999999E-07
      1.50000000000000E+01   6.22850802074492E-01   5.00000000000000E+01   1.50000000000000E+01  -4.93771491979255E+01
      9.34255428589862E-01  -1.27535972322401E-04  -9.37591269849831E-01   9.37591269849831E-01  -9.34255422801490E-01