DF-ISE text

Info {
  version   = 1.0
  type      = xyplot
  datasets  = [
    "time"
    "Gate OuterVoltage" "Gate InnerVoltage" "Gate QuasiFermiPotential" "Gate DisplacementCurrent" "Gate eCurrent"
    "Gate hCurrent" "Gate TotalCurrent" "Gate Charge" "Emitter OuterVoltage" "Emitter InnerVoltage"
    "Emitter QuasiFermiPotential" "Emitter DisplacementCurrent" "Emitter eCurrent" "Emitter hCurrent" "Emitter TotalCurrent"
    "Emitter Charge" "Collector OuterVoltage" "Collector InnerVoltage" "Collector QuasiFermiPotential" "Collector DisplacementCurrent"
    "Collector eCurrent" "Collector hCurrent" "Collector TotalCurrent" "Collector Charge" ]
  functions = [
    Time
    OuterVoltage InnerVoltage QuasiFermiPotential DisplacementCurrent eCurrent
    hCurrent TotalCurrent Charge OuterVoltage InnerVoltage
    QuasiFermiPotential DisplacementCurrent eCurrent hCurrent TotalCurrent
    Charge OuterVoltage InnerVoltage QuasiFermiPotential DisplacementCurrent
    eCurrent hCurrent TotalCurrent Charge ]
}

Data {
      0.00000000000000E+00
      0.00000000000000E+00   0.00000000000000E+00   0.00000000000000E+00   0.00000000000000E+00  -7.67347135541744E-25
      7.67347135541744E-25   0.00000000000000E+00  -1.40511466553344E-06   4.99999998696550E+01   4.99999998696552E+01
      0.00000000000000E+00   2.73608421222100E-26  -1.18782786227145E-16   1.41640386580583E-11   1.41639198752721E-11
      1.03500089760070E-06   5.00000000000000E+01   5.00000000000001E+01   0.00000000000000E+00   5.35950613335055E-25
      2.45225683105038E-14  -1.41884424435831E-11  -1.41639198752721E-11   3.70113767932761E-07
      6.75000000000000E-09
      0.00000000000000E+00   0.00000000000000E+00   0.00000000000000E+00  -5.74464409272180E-09   5.46335920550343E-09
      2.19388904530500E-25  -2.81284887218365E-10  -1.40511466540733E-06   4.99999998652667E+01   4.99999998652668E+01
      0.00000000000000E+00  -3.36855085882495E-08   2.56425629989126E-08   7.98557271317998E-09  -5.73728761569075E-11
      1.03500089743568E-06   5.00000000000000E+01   5.00000000000001E+01   0.00000000000000E+00  -1.17407216336801E-09
      7.55270869495818E-10   7.57490449369240E-10   3.38689155497047E-10   3.70113767971656E-07
      1.35000000000000E-08
      0.00000000000000E+00   0.00000000000000E+00   0.00000000000000E+00  -6.71400456610958E-09   6.73978046192946E-09
      2.94876623806339E-25   2.57758958198787E-11  -1.40511466540794E-06   4.99999998652879E+01   4.99999998652878E+01
      0.00000000000000E+00   2.73691174888210E-08  -2.01703085577137E-08  -7.31511551430479E-09  -1.16306583197548E-10
      1.03500089743537E-06   5.00000000000000E+01   5.00000000000001E+01   0.00000000000000E+00  -1.73164937489905E-09
      7.09419562965353E-10   1.11320500354356E-09   9.09751916098695E-11   3.70113767972570E-07
      2.02500000000000E-08
      0.00000000000000E+00   0.00000000000000E+00   0.00000000000000E+00  -6.94236465130110E-09   6.89696740727655E-09
      3.66975792596353E-25  -4.53972440245554E-11  -1.40511466540832E-06   4.99999998653013E+01   4.99999998653014E+01
      0.00000000000000E+00   3.54392681021089E-08  -2.57825771520324E-08  -9.67165721331718E-09  -1.49662632406351E-11
      1.03500089743522E-06   5.00000000000000E+01   5.00000000000001E+01   0.00000000000000E+00  -1.71795487198300E-09
      6.64794698607148E-10   1.11321280029589E-09   6.00526269200427E-11   3.70113767973111E-07
      2.70000000000000E-08
      0.00000000000000E+00   0.00000000000000E+00   0.00000000000000E+00  -3.32608138506123E-09   3.88620513921925E-09
      4.45494836571748E-25   5.60123754158026E-10  -1.40511466540865E-06   4.99999998653125E+01   4.99999998653125E+01
      0.00000000000000E+00  -9.15653026622359E-09   6.00427615353839E-09   2.50288293197861E-09  -6.49371180706582E-10
      1.03500089743508E-06   5.00000000000000E+01   5.00000000000001E+01   0.00000000000000E+00  -1.35457672486256E-09
      6.23069993887583E-10   8.22940319255024E-10   9.14335882800436E-11   3.70113767973569E-07
      3.37500000000000E-08
      0.00000000000000E+00   0.00000000000000E+00   0.00000000000000E+00  -5.59412707239238E-09   5.53997520654383E-09
      4.84256583073779E-25  -5.41518658485499E-11  -1.40511466540902E-06   4.99999998653255E+01   4.99999998653255E+01
      0.00000000000000E+00   2.03747737742933E-08  -1.64521307962968E-08  -3.90770311239384E-09   1.49398656026601E-11
      1.03500089743500E-06   5.00000000000000E+01   5.00000000000001E+01   0.00000000000000E+00  -1.04833300256940E-09
      5.82176305998845E-10   5.05478222819536E-10   3.93215262489786E-11   3.70113767974018E-07
      4.05000000000000E-08
      0.00000000000000E+00   0.00000000000000E+00   0.00000000000000E+00  -7.20766333440502E-09   7.15789765755134E-09
      5.16913018981938E-25  -4.97656768536769E-11  -1.40511466540935E-06   4.99999998653372E+01   4.99999998653371E+01
      0.00000000000000E+00  -1.69573499436197E-08   1.33862062565889E-08   3.57829762643662E-09   7.15393940578592E-12
      1.03500089743494E-06   5.00000000000000E+01   5.00000000000001E+01   0.00000000000000E+00  -1.00665494837512E-09
      5.43784642876232E-10   5.05483748673131E-10   4.26134431742416E-11   3.70113767974419E-07
      4.72500000000000E-08
      0.00000000000000E+00   0.00000000000000E+00   0.00000000000000E+00  -4.49092505016232E-09   4.44357527438728E-09
      5.56265030688620E-25  -4.73497757750465E-11  -1.40511466540967E-06   4.99999998653483E+01   4.99999998653481E+01
      0.00000000000000E+00  -1.64349932186110E-08   1.32741166262138E-08   3.16786746506386E-09   6.99087266668595E-12
      1.03500089743489E-06   5.00000000000000E+01   5.00000000000001E+01   0.00000000000000E+00  -1.58380770333189E-09
      5.10925322496047E-10   1.11323891563136E-09   4.03565347955228E-11   3.70113767974796E-07
      5.40000000000000E-08
      0.00000000000000E+00   0.00000000000000E+00   0.00000000000000E+00  -2.63024339952308E-09   2.58505879874221E-09
      6.15650521700384E-25  -4.51846007808712E-11  -1.40511466540998E-06   4.99999998653589E+01   4.99999998653590E+01
      0.00000000000000E+00   4.29833060090961E-08  -3.13305557740667E-08  -1.16542298175567E-08  -1.47958252726020E-12
      1.03500089743484E-06   5.00000000000000E+01   5.00000000000001E+01   0.00000000000000E+00  -2.17744675669654E-09
      4.77859341479167E-10   1.74617251218302E-09   4.65850969656494E-11   3.70113767975142E-07
      6.07500000000000E-08
      0.00000000000000E+00   0.00000000000000E+00   0.00000000000000E+00  -6.42237468804082E-09   6.37901357276524E-09
      6.65639869080512E-25  -4.33611152755826E-11  -1.40511466541027E-06   4.99999998653691E+01   4.99999998653691E+01
      0.00000000000000E+00  -3.37740809620256E-09   2.46865431850693E-09   9.19746807297815E-10   1.09930296021873E-11
      1.03500089743482E-06   5.00000000000000E+01   5.00000000000001E+01   0.00000000000000E+00  -1.52892766809185E-09
      4.48062190230885E-10   1.11325117848454E-09   3.23857006235779E-11   3.70113767975472E-07
      6.75000000000000E-08
      0.00000000000000E+00   0.00000000000000E+00   0.00000000000000E+00  -6.72668096798266E-09   6.68502976225887E-09
      6.96713149912984E-25  -4.16512057237889E-11  -1.40511466541055E-06   4.99999998653789E+01   4.99999998653790E+01
      0.00000000000000E+00   2.85188721544937E-08  -2.12039898132112E-08  -7.31511551430481E-09  -2.33173022306038E-13
      1.03500089743479E-06   5.00000000000000E+01   5.00000000000001E+01   0.00000000000000E+00  -2.12391418005775E-09
      4.19507422378336E-10   1.74618273122733E-09   4.17759735479152E-11   3.70113767975766E-07
      7.42500000000000E-08
      0.00000000000000E+00   0.00000000000000E+00   0.00000000000000E+00  -4.15635970352352E-09   4.11628462165658E-09
      7.46192441356162E-25  -4.00750818669473E-11  -1.40511466541082E-06   4.99999998653883E+01   4.99999998653882E+01
      0.00000000000000E+00  -2.20386049995873E-08   1.65833312916250E-08   5.45666682690421E-09   1.39311894185332E-12
      1.03500089743478E-06   5.00000000000000E+01   5.00000000000001E+01   0.00000000000000E+00  -1.46518979354069E-09
      3.90704546146121E-10   1.11326003498962E-09   3.87747875950479E-11   3.70113767976048E-07
      8.10000000000000E-08
      0.00000000000000E+00   0.00000000000000E+00   0.00000000000000E+00  -7.37548084831844E-09   7.33671238413253E-09
      7.84243469837912E-25  -3.87684641859174E-11  -1.40511466541108E-06   4.99999998653974E+01   4.99999998653973E+01
      0.00000000000000E+00  -8.76789591835672E-09   6.23799546019904E-09   2.53521695661244E-09   5.31649845474934E-12
      1.03500089743478E-06   5.00000000000000E+01   5.00000000000001E+01   0.00000000000000E+00  -1.44607817065537E-09
      3.66243031258230E-10   1.11326712393374E-09   3.34319845366049E-11   3.70113767976298E-07
      8.77500000000000E-08
      0.00000000000000E+00   0.00000000000000E+00   0.00000000000000E+00  -7.35885441608448E-09   7.32143557478397E-09
      8.45274837529092E-25  -3.74188413005029E-11  -1.40511466541134E-06   4.99999998654062E+01   4.99999998654063E+01
      0.00000000000000E+00   1.71402892262456E-08  -1.40694259315683E-08  -3.05111369718202E-09   1.97495974953143E-11
      1.03500089743480E-06   5.00000000000000E+01   5.00000000000001E+01   0.00000000000000E+00  -1.43740450475380E-09
      3.41814599189986E-10   1.11327083306835E-09   1.76809275045379E-11   3.70113767976541E-07
      9.45000000000000E-08
      0.00000000000000E+00   0.00000000000000E+00   0.00000000000000E+00  -3.64621892109028E-09   3.60984509108745E-09
      8.85178515372078E-25  -3.63738300028325E-11  -1.40511466541158E-06   4.99999998654147E+01   4.99999998654148E+01
      0.00000000000000E+00  -4.11416407718279E-08   3.08359801520484E-08   1.03370506084746E-08   3.13899886951210E-11
      1.03500089743482E-06   5.00000000000000E+01   5.00000000000001E+01   0.00000000000000E+00  -1.42900549661242E-09
      3.20672073378519E-10   1.11327605613545E-09   4.94263290154386E-12   3.70113767976759E-07
      1.01250000000000E-07
      0.00000000000000E+00   5.55265727735544E-12   0.00000000000000E+00   1.02235653521459E-08  -5.55262180615514E-03
     -1.84792990253624E-21  -5.55261158258979E-03  -1.40512480339052E-06   5.00003572116763E+01   5.00003572033266E+01
      0.00000000000000E+00   6.28970943044381E-05   3.66338918006324E-04   7.92027064574985E-03   8.34950665806061E-03
      1.03501175580743E-06   5.00000000000000E+01   5.00000000027969E+01   0.00000000000000E+00  -1.35495368167045E-08
     -3.79384171293703E-05  -2.75894310730417E-03  -2.79689507397035E-03   3.70113047583080E-07
      1.08000000000000E-07
      0.00000000000000E+00   3.82055737835870E-12   0.00000000000000E+00  -1.28213851153840E-10  -3.82051388939363E-03
     -1.27112358570502E-21  -3.82051401760748E-03  -1.40515053931487E-06   5.00012514248597E+01   5.00012514187715E+01
      0.00000000000000E+00   4.48565062353928E-05   3.76450284668467E-04   5.66687780060574E-03   6.08818459150960E-03
      1.03504577674988E-06   5.00000000000000E+01   5.00000000022678E+01   0.00000000000000E+00  -6.62841126651378E-09
     -2.01150009381249E-04  -2.06651393621059E-03  -2.26767057400311E-03   3.70104762564990E-07
      1.14750000000000E-07
      0.00000000000000E+00   3.93536329986811E-12   0.00000000000000E+00   1.93803924046005E-10  -3.93531841378712E-03
     -1.30956467644100E-21  -3.93531821998320E-03  -1.40517707991486E-06   5.00021750471248E+01   5.00021750408238E+01
      0.00000000000000E+00   4.61990932806228E-05   3.86601437960890E-04   5.86825254890281E-03   6.30105308014432E-03
      1.03508061687866E-06   5.00000000000000E+01   5.00000000023657E+01   0.00000000000000E+00  -4.14618365411183E-09
     -3.55259332090466E-04  -2.01047138159065E-03  -2.36573485986477E-03   3.70096463036192E-07
      1.21500000000000E-07
      0.00000000000000E+00   2.41588396750678E-12   0.00000000000000E+00   1.22349780718139E-10  -2.41591686169284E-03
     -8.03615457011858E-22  -2.41591673934306E-03  -1.40519774061928E-06   5.00028927309127E+01   5.00028927268793E+01
      0.00000000000000E+00   2.82798869018278E-05   2.32904162203931E-04   3.77233072169709E-03   4.03351477080285E-03
      1.03510867947385E-06   5.00000000000000E+01   5.00000000016177E+01   0.00000000000000E+00  -3.97525540100965E-10
     -4.69974764518866E-04  -1.14762286957236E-03  -1.61759803161676E-03   3.70089061145422E-07
      1.28250000000000E-07
      0.00000000000000E+00  -7.35707783485835E-09   0.00000000000000E+00   1.92161625578198E-06   7.35707591092762E+00
      2.46120549467912E-18   7.35707783254387E+00  -1.38282839566678E-06   4.92189355752314E+01   4.92189456962903E+01
      0.00000000000000E+00  -8.69280730409122E-02  -7.76240641561184E-01  -9.25788994512040E+00  -1.01210586597225E+01
      1.01012639164281E-06   5.00000000000000E+01   4.99999972360191E+01   0.00000000000000E+00   2.02846754768626E-05
      9.43245751908430E-02   2.66963596731225E+00   2.76398082717857E+00   3.72702004023961E-07
      1.35000000000000E-07
      0.00000000000000E+00  -4.58424795715324E-08   0.00000000000000E+00   6.05658705410859E-06   4.58424734735345E+01
      1.53381762730814E-17   4.58424795301216E+01  -1.19822455920120E-06   4.27688141270952E+01   4.27688701391921E+01
      0.00000000000000E+00  -5.39700465568547E-01  -4.75842580333029E+00  -5.07139706982399E+01  -5.60120969671387E+01
      8.26100532678773E-07   5.00000000000000E+01   4.99999898303827E+01   0.00000000000000E+00   7.33214995387457E-05
      6.50381819417289E-01   9.51916229610045E+00   1.01696174370173E+01   3.72124026522417E-07
      1.41750000000000E-07
      0.00000000000000E+00  -5.40887292684811E-08   0.00000000000000E+00   1.00873531335439E-07   5.40887291374062E+01
      1.81020224258834E-17   5.40887292382797E+01  -8.30157679867592E-07   2.99539408216257E+01   2.99540023640822E+01
      0.00000000000000E+00  -6.34759462165730E-01  -5.56070490765225E+00  -5.53469921862885E+01  -6.15424565561065E+01
      4.92013320197704E-07   5.00000000000000E+01   4.99999925462728E+01   0.00000000000000E+00   1.50305884122832E-05
      1.30176993385721E+00   6.15194235337396E+00   7.45372731781957E+00   3.38144359669884E-07
      1.48500000000000E-07
      0.00000000000000E+00  -4.35591628281951E-08   0.00000000000000E+00  -1.51508978062236E-06   4.35591643314738E+01
      1.45815763544840E-17   4.35591628163840E+01  -4.99453022227034E-07   1.84442259646478E+01   1.84442742790430E+01
      0.00000000000000E+00  -5.11337030371185E-01  -4.68411256823851E+00  -4.31189457122866E+01  -4.83143953108963E+01
      2.07013853698068E-07   5.00000000000000E+01   4.99999952447677E+01   0.00000000000000E+00   3.88600507608103E-06
      1.44755334603285E+00   3.30767526247423E+00   4.75523249451215E+00   2.92439168528965E-07
      1.55250000000000E-07
      0.00000000000000E+00  -3.02299494725913E-08   0.00000000000000E+00  -1.47252207544362E-06   3.02299509692699E+01
      1.01211948665180E-17   3.02299494967478E+01  -2.54189455850167E-07   9.90137171223136E+00   9.90140499385704E+00
      0.00000000000000E+00  -3.55370272594415E-01  -3.37061264462087E+00  -2.95556427649635E+01  -3.32816256821788E+01
     -1.93416366633134E-09   5.00000000000000E+01   4.99999969483236E+01   0.00000000000000E+00  -2.64788424269914E-06
      1.47248270114982E+00   1.57919613216523E+00   3.05167618543081E+00   2.56123619516498E-07
      1.62000000000000E-07
      0.00000000000000E+00  -1.72739876183146E-08   0.00000000000000E+00  -1.53466200582950E-06   1.72739892072470E+01
      5.78413534752894E-18   1.72739876725850E+01  -1.01502914921180E-07   4.57056672022882E+00   4.57058573169249E+00
      0.00000000000000E+00  -2.03963068382328E-01  -1.95346874382618E+00  -1.68540318421743E+01  -1.90114636543828E+01
     -1.31177354273837E-07   5.00000000000000E+01   4.99999982625239E+01   0.00000000000000E+00  -6.10968181547430E-06
      1.42523239956329E+00   3.12249691916212E-01   1.73747598179768E+00   2.32680269195016E-07
      1.68750000000000E-07
      0.00000000000000E+00  -6.99924697306360E-09   0.00000000000000E+00  -1.07125198286741E-06   6.99924806229386E+00
      2.34393568198501E-18   6.99924699104187E+00  -2.76704131164680E-08   1.96366582630820E+00   1.96367356289417E+00
      0.00000000000000E+00  -8.51860096391023E-02  -8.16237438754334E-01  -6.83516251992912E+00  -7.73658596832256E+00
     -1.94110640090267E-07   5.00000000000000E+01   4.99999992626611E+01   0.00000000000000E+00  -8.51041690042219E-06
      1.33526274260595E+00  -5.97915254908320E-01   7.37338977280731E-01   2.21781053206735E-07
      1.75500000000000E-07
      0.00000000000000E+00  -1.68794131672632E-09   0.00000000000000E+00  -3.76630849540067E-07   1.68794169585672E+00
      5.65443758593648E-19   1.68794131922587E+00  -5.20004912120122E-09   1.03770748383878E+00   1.03770940906174E+00
      0.00000000000000E+00  -2.64046681260173E-02  -2.54092880632924E-01  -1.64472541015841E+00  -1.92522295891735E+00
     -2.16646567527163E-07   5.00000000000000E+01   4.99999997627183E+01   0.00000000000000E+00  -9.65162336197218E-06
      1.21769931665784E+00  -9.80408025342995E-01   2.37281639691487E-01   2.21846616648365E-07
      1.82250000000000E-07
      0.00000000000000E+00  -4.85259648451749E-10   0.00000000000000E+00  -9.91542302664533E-08   4.85259704051488E-01
      1.62562240817469E-19   4.85259604897258E-01  -5.37110164873539E-10   8.16855948982546E-01   8.16856513620589E-01
      0.00000000000000E+00  -7.81869652493732E-03  -7.54969632344289E-02  -4.81322385331760E-01  -5.64638045091127E-01
     -2.22026586056910E-07   5.00000000000000E+01   4.99999999206214E+01   0.00000000000000E+00  -9.93318651223694E-06
      1.08886904906959E+00  -1.00948067568921E+00   7.93784401938687E-02   2.22563696221783E-07
      1.89000000000000E-07
      0.00000000000000E+00  -1.47348440641517E-10   0.00000000000000E+00  -2.46608650448051E-08   1.47348486430168E-01
      4.93619111870831E-20   1.47348461769303E-01   9.74882227683689E-10   7.43986297194100E-01   7.43986480646238E-01
      0.00000000000000E+00  -2.40265001684602E-03  -2.33146441898311E-02  -1.57734841200944E-01  -1.83452135407621E-01
     -2.23848970194939E-07   5.00000000000000E+01   4.99999999638964E+01   0.00000000000000E+00  -9.51073020883623E-06
      9.58898499306383E-01  -9.22785314937856E-01   3.61036736383174E-02   2.22874087967255E-07
      1.95750000000000E-07
      0.00000000000000E+00  -6.63457909718639E-11   0.00000000000000E+00  -6.60137974552519E-09   6.63457953364610E-02
      2.22256660228209E-20   6.63457887350813E-02   1.51257062435781E-09   7.17893317894368E-01   7.17893409990396E-01
      0.00000000000000E+00  -1.08740430021976E-03  -1.06211657112691E-02  -8.03874585136824E-02  -9.20960285251713E-02
     -2.24571831944545E-07   5.00000000000000E+01   4.99999999742498E+01   0.00000000000000E+00  -7.76974749330996E-06
      8.50682119256465E-01  -8.24924109718882E-01   2.57502397900902E-02   2.23059261320187E-07
      2.02500000000000E-07
      0.00000000000000E+00  -4.38753331008820E-11   0.00000000000000E+00  -2.94273025840526E-09   4.38753677865507E-02
      1.46981005277766E-20   4.38753648438205E-02   1.80872933705360E-09   7.03465069376401E-01   7.03465135031537E-01
      0.00000000000000E+00  -7.20866448730196E-04  -7.06647705007054E-03  -5.78677939754067E-02  -6.56551374742074E-02
     -2.25015002165011E-07   5.00000000000000E+01   4.99999999782201E+01   0.00000000000000E+00  -6.39074080504610E-06
      7.66981546677460E-01  -7.45195383306266E-01   2.17797726303881E-02   2.23206272827958E-07
      2.09250000000000E-07
      0.00000000000000E+00  -3.80580711356317E-11   0.00000000000000E+00  -1.29794616376902E-09   3.80580882210332E-02
      1.27491457498186E-20   3.80580869230870E-02   2.06562142378445E-09   6.90924371233642E-01   6.90924429168697E-01
      0.00000000000000E+00  -6.26566542713033E-04  -6.16829869210216E-03  -5.11401891043468E-02  -5.79350543391620E-02
     -2.25406061680169E-07   5.00000000000000E+01   4.99999999801230E+01   0.00000000000000E+00  -5.33703493472349E-06
      6.97152369989005E-01  -6.77270065537996E-01   1.98769674160738E-02   2.23340440256384E-07
      2.16000000000000E-07
      0.00000000000000E+00  -3.92793306062802E-11   0.00000000000000E+00  -2.90214627239929E-09   3.92793384547658E-02
      1.31580609253798E-20   3.92793355526195E-02   2.33075693876462E-09   6.77966943063226E-01   6.77967001188384E-01
      0.00000000000000E+00  -6.47392215085723E-04  -6.38745647549112E-03  -5.10903073611757E-02  -5.81251560517525E-02
     -2.25798404042183E-07   5.00000000000000E+01   4.99999999811542E+01   0.00000000000000E+00  -4.58686513668160E-06
      6.36957337823439E-01  -6.18106930459167E-01   1.88458204991349E-02   2.23467647103418E-07
      2.22750000000000E-07
      0.00000000000000E+00  -4.44793040927587E-11   0.00000000000000E+00   3.53445533403507E-09   4.44792417126101E-02
      1.48997679458857E-20   4.44792452470655E-02   2.63099184418231E-09   6.63282212661706E-01   6.63282275538154E-01
      0.00000000000000E+00  -7.33693922742991E-04  -7.24695311905276E-03  -5.48958024126796E-02  -6.28764494544753E-02
     -2.26222817054002E-07   5.00000000000000E+01   4.99999999816027E+01   0.00000000000000E+00  -4.04613326168690E-06
      5.83949969449780E-01  -5.65548719109110E-01   1.83972042074085E-02   2.23591825209819E-07
      2.29500000000000E-07
      0.00000000000000E+00  -5.65364975038884E-11   0.00000000000000E+00  -9.68543863388231E-10   5.65364868720040E-02
      1.89386004797256E-20   5.65364859034601E-02   3.00110995445787E-09   6.45161359384851E-01   6.45161434825953E-01
      0.00000000000000E+00  -9.33521630829013E-04  -9.22412759890759E-03  -6.52834543951273E-02  -7.54411036248639E-02
     -2.26720471689173E-07   5.00000000000000E+01   4.99999999810955E+01   0.00000000000000E+00  -3.58348742825212E-06
      5.35860731638515E-01  -5.16952530429682E-01   1.89046177214049E-02   2.23719361734714E-07
      2.36250000000000E-07
      0.00000000000000E+00  -6.11876068408148E-11   0.00000000000000E+00   3.81560627974749E-09   6.11875301147454E-02
      2.04966662575662E-20   6.11875339303517E-02   3.41412580848773E-09   6.24920929297818E-01   6.24921009083162E-01
      0.00000000000000E+00  -1.01127512792876E-03  -9.98589341736942E-03  -6.87881756131195E-02  -7.97853441584177E-02
     -2.27259017623301E-07   5.00000000000000E+01   4.99999999814024E+01   0.00000000000000E+00  -3.22612852598586E-06
      4.93546277369292E-01  -4.74945241012698E-01   1.85978102280676E-02   2.23844891814813E-07
      2.43000000000000E-07
      0.00000000000000E+00  -6.43980396299039E-11   0.00000000000000E+00   5.08352936456436E-10   6.43980376744486E-02
      2.15721686952061E-20   6.43980381828016E-02   3.84881256622164E-09   6.03589173861140E-01   6.03589256436001E-01
      0.00000000000000E+00  -1.06579875643465E-03  -1.05217872407257E-02  -7.09872727449505E-02  -8.25748587421109E-02
     -2.27816390923799E-07   5.00000000000000E+01   4.99999999818232E+01   0.00000000000000E+00  -2.90731789227710E-06
      4.55293834215464E-01  -4.37114106338264E-01   1.81768205593075E-02   2.23967578357578E-07
      2.49750000000000E-07
      0.00000000000000E+00  -6.34807862394123E-11   0.00000000000000E+00   1.71621133764482E-10   6.34807588417494E-02
      2.12650158302152E-20   6.34807590133705E-02   4.27730768956190E-09   5.82532217358895E-01   5.82532298147013E-01
      0.00000000000000E+00  -1.05206677596342E-03  -1.03790733841185E-02  -6.93569794565815E-02  -8.07881196166634E-02
     -2.28361701173048E-07   5.00000000000000E+01   4.99999999826927E+01   0.00000000000000E+00  -2.63829080922992E-06
      4.20547997866618E-01  -4.03237998972514E-01   1.73073606032940E-02   2.24084393483487E-07
      2.56500000000000E-07
      0.00000000000000E+00  -5.95804157844203E-11   0.00000000000000E+00  -3.95276851580435E-10   5.95804443979804E-02
      1.99586295763113E-20   5.95804440027035E-02   4.67947568658015E-09   5.62742155053868E-01   5.62742230748659E-01
      0.00000000000000E+00  -9.88768596158428E-04  -9.74929507827433E-03  -6.49567255119866E-02  -7.56947891864194E-02
     -2.28872628011731E-07   5.00000000000000E+01   4.99999999838856E+01   0.00000000000000E+00  -2.41127081585360E-06
      3.88862513383565E-01  -3.72745756929033E-01   1.61143451837160E-02   2.24193152325150E-07
      2.63250000000000E-07
      0.00000000000000E+00  -5.42968635870829E-11   0.00000000000000E+00  -3.19005443453481E-09   5.42968726114249E-02
      1.81889066050452E-20   5.42968694213705E-02   5.04597955517439E-09   5.44683949544313E-01   5.44684018636011E-01
      0.00000000000000E+00  -9.02239248185912E-04  -8.89320756854284E-03  -5.92962521566666E-02  -6.90916989733953E-02
     -2.29338979518273E-07   5.00000000000000E+01   4.99999999852052E+01   0.00000000000000E+00  -2.19871821027038E-06
      3.59881127890775E-01  -3.45084099620540E-01   1.47948295520243E-02   2.24292999963098E-07
      2.70000000000000E-07
      0.00000000000000E+00  -4.86227875671391E-11   0.00000000000000E+00  -3.78059382234091E-10   4.86228296211267E-02
      1.62883494343375E-20   4.86228292430673E-02   5.37418365256512E-09   5.28493890825560E-01   5.28493952922159E-01
      0.00000000000000E+00  -8.08900291972012E-04  -7.97170355530768E-03  -5.33159963555989E-02  -6.20966002028786E-02
     -2.29758108405471E-07   5.00000000000000E+01   4.99999999865263E+01   0.00000000000000E+00  -2.01625377114793E-06
      3.33311870195753E-01  -3.19836082982173E-01   1.34737709598089E-02   2.24383924752906E-07
      2.76750000000000E-07
      0.00000000000000E+00  -4.30288001580402E-11   0.00000000000000E+00   9.12287958052039E-10   4.30288174442690E-02
      1.44145335191021E-20   4.30288183565570E-02   5.66462817647185E-09   5.14151426880725E-01   5.14151482119015E-01
      0.00000000000000E+00  -7.16589421276266E-04  -7.06112470140872E-03  -4.74605746073224E-02  -5.52382887300074E-02
     -2.30130936561851E-07   5.00000000000000E+01   4.99999999877904E+01   0.00000000000000E+00  -1.85249789377741E-06
      3.08908836169445E-01  -2.96697513298098E-01   1.22094703734530E-02   2.24466308385379E-07
      2.83500000000000E-07
      0.00000000000000E+00  -3.77039178289595E-11   0.00000000000000E+00  -3.47241916081092E-10   3.77039632382158E-02
      1.26309144576668E-20   3.77039628909739E-02   5.91912992598593E-09   5.01572111675591E-01   5.01572160403046E-01
      0.00000000000000E+00  -6.28497210441088E-04  -6.19245367420918E-03  -4.19065024314870E-02  -4.87274533161372E-02
     -2.30459807821238E-07   5.00000000000000E+01   4.99999999889766E+01   0.00000000000000E+00  -1.70820227687907E-06
      2.86460666406321E-01  -2.75435467778882E-01   1.10234904251623E-02   2.24540677895252E-07
      2.90250000000000E-07
      0.00000000000000E+00  -3.27087581064537E-11   0.00000000000000E+00  -5.30296283480938E-10   3.27087988100576E-02
      1.09577000063495E-20   3.27087982797613E-02   6.13991431437431E-09   4.90650306573891E-01   4.90650349203230E-01
      0.00000000000000E+00  -5.45682376272469E-04  -5.37591076522733E-03  -3.67077484690448E-02  -4.26293416105446E-02
     -2.30747506230330E-07   5.00000000000000E+01   4.99999999900793E+01   0.00000000000000E+00  -1.57537825719727E-06
      2.65783155682802E-01  -2.55861036973760E-01   9.92054333078467E-03   2.24607591915954E-07
      2.97000000000000E-07
      0.00000000000000E+00  -2.80501175010763E-11   0.00000000000000E+00  -1.83279178445419E-10   2.80501131229929E-02
      9.39715849816140E-21   2.80501129397137E-02   6.32925257671739E-09   4.81277177102145E-01   4.81277214050662E-01
      0.00000000000000E+00  -4.68307024693159E-04  -4.61298216493395E-03  -3.18672288114888E-02  -3.69485180011159E-02
     -2.30996846434410E-07   5.00000000000000E+01   4.99999999911015E+01   0.00000000000000E+00  -1.44696316976820E-06
      2.46714222923121E-01  -2.37814370898550E-01   8.89840506140153E-03   2.24667593857693E-07
      3.03750000000000E-07
      0.00000000000000E+00  -2.37140356127718E-11   0.00000000000000E+00  -5.11112045833561E-10   2.37140782958029E-02
      7.94468899826446E-21   2.37140777846909E-02   6.48932260176404E-09   4.73347708342562E-01   4.73347740008968E-01
      0.00000000000000E+00  -3.96176835582687E-04  -3.90176238118483E-03  -2.73684660124375E-02  -3.16664052292050E-02
     -2.31210517471474E-07   5.00000000000000E+01   4.99999999920475E+01   0.00000000000000E+00  -1.34245769264340E-06
      2.29110262255031E-01  -2.21156592352825E-01   7.95232744451401E-03   2.24721194869710E-07
      3.10500000000000E-07
      0.00000000000000E+00  -1.96801229098800E-11   0.00000000000000E+00  -5.86314527278547E-10   1.96801157089699E-02
      6.59338658326289E-21   1.96801151226554E-02   6.62216337884197E-09   4.66763096195184E-01   4.66763122952178E-01
      0.00000000000000E+00  -3.28984938778327E-04  -3.23918427196658E-03  -2.31888255880533E-02  -2.67569947987982E-02
     -2.31391032613996E-07   5.00000000000000E+01   4.99999999929232E+01   0.00000000000000E+00  -1.22830454333273E-06
      2.12843355652462E-01  -2.05765247671776E-01   7.07687967614281E-03   2.24768869235154E-07
      3.17250000000000E-07
      0.00000000000000E+00  -1.59264285002084E-11   0.00000000000000E+00  -5.89975618221087E-10   1.59264387575105E-02
      5.33598804707646E-21   1.59264381675349E-02   6.72966683647284E-09   4.61431273387502E-01   4.61431295580613E-01
      0.00000000000000E+00  -2.66390800630842E-04  -2.62193738083659E-03  -1.93047840107062E-02  -2.21931121921736E-02
     -2.31540721503099E-07   5.00000000000000E+01   4.99999999937334E+01   0.00000000000000E+00  -1.14485294265712E-06
      1.97799063590978E-01  -1.91531244713397E-01   6.26667402463875E-03   2.24811054666626E-07
      3.24000000000000E-07
      0.00000000000000E+00  -1.24321036284108E-11   0.00000000000000E+00  -6.73296310490623E-10   1.24321231953607E-02