DF-ISE text

Info {
  version   = 1.0
  type      = xyplot
  datasets  = [
    "time"
    "Gate OuterVoltage" "Gate InnerVoltage" "Gate QuasiFermiPotential" "Gate DisplacementCurrent" "Gate eCurrent"
    "Gate hCurrent" "Gate TotalCurrent" "Gate Charge" "Emitter OuterVoltage" "Emitter InnerVoltage"
    "Emitter QuasiFermiPotential" "Emitter DisplacementCurrent" "Emitter eCurrent" "Emitter hCurrent" "Emitter TotalCurrent"
    "Emitter Charge" "Collector OuterVoltage" "Collector InnerVoltage" "Collector QuasiFermiPotential" "Collector DisplacementCurrent"
    "Collector eCurrent" "Collector hCurrent" "Collector TotalCurrent" "Collector Charge" ]
  functions = [
    Time
    OuterVoltage InnerVoltage QuasiFermiPotential DisplacementCurrent eCurrent
    hCurrent TotalCurrent Charge OuterVoltage InnerVoltage
    QuasiFermiPotential DisplacementCurrent eCurrent hCurrent TotalCurrent
    Charge OuterVoltage InnerVoltage QuasiFermiPotential DisplacementCurrent
    eCurrent hCurrent TotalCurrent Charge ]
}

Data {
      0.00000000000000E+00
      0.00000000000000E+00   0.00000000000000E+00   0.00000000000000E+00   0.00000000000000E+00  -7.65624946767428E-25
      7.65624946767428E-25   0.00000000000000E+00  -1.40511466553344E-06   4.99999998696550E+01   4.99999998696552E+01
      0.00000000000000E+00  -7.72541424627106E-26  -3.92030469177068E-17  -2.05606162528012E-11  -2.05606554558482E-11
      1.03500089760070E-06   5.00000000000000E+01   5.00000000000001E+01   0.00000000000000E+00   2.70389498619487E-25
      2.44429899997687E-14   2.05362124658481E-11   2.05606554558482E-11   3.70113767932761E-07
      6.75000000000000E-09
      0.00000000000000E+00   0.00000000000000E+00   0.00000000000000E+00  -5.85799386212066E-09   5.58033737001139E-09
      3.52640713098950E-25  -2.77656492109274E-10  -1.40511466540880E-06   4.99999998653180E+01   4.99999998653179E+01
      0.00000000000000E+00  -4.88245359429623E-08   3.90264634050175E-08   9.75547149453088E-09  -4.26010434138326E-11
      1.03500089743760E-06   5.00000000000000E+01   5.00000000000001E+01   0.00000000000000E+00  -1.18346157176958E-09
      7.46662847799063E-10   7.57491887605102E-10   3.20693163634589E-10   3.70113767971200E-07
      1.35000000000000E-08
      0.00000000000000E+00   0.00000000000000E+00   0.00000000000000E+00  -4.88524343847494E-09   4.91080619663358E-09
      3.59950457842696E-25   2.55627581586333E-11  -1.40511466540940E-06   4.99999998653389E+01   4.99999998653387E+01
      0.00000000000000E+00  -3.86593952181659E-09   2.28886346890725E-09   1.44875163520270E-09  -1.28324417706647E-10
      1.03500089743730E-06   5.00000000000000E+01   5.00000000000001E+01   0.00000000000000E+00  -1.71378077178382E-09
      7.02664639259708E-10   1.11320651747605E-09   1.02090384951940E-10   3.70113767972109E-07
      2.02500000000000E-08
      0.00000000000000E+00   0.00000000000000E+00   0.00000000000000E+00  -5.18598805627416E-09   5.14131243914132E-09
      4.49906249192755E-25  -4.46756171328449E-11  -1.40511466540978E-06   4.99999998653521E+01   4.99999998653521E+01
      0.00000000000000E+00  -9.49347028457733E-09   6.84733595825228E-09   2.61643254191719E-09  -2.97017844078722E-11
      1.03500089743715E-06   5.00000000000000E+01   5.00000000000001E+01   0.00000000000000E+00  -1.69763079984001E-09
      6.58630158676125E-10   1.11321416283513E-09   7.42135216712430E-11   3.70113767972644E-07
      2.70000000000000E-08
      0.00000000000000E+00   0.00000000000000E+00   0.00000000000000E+00  -3.22838064720386E-09   3.79531784516184E-09
      5.08785650008798E-25   5.66937197957981E-10  -1.40511466541011E-06   4.99999998653631E+01   4.99999998653631E+01
      0.00000000000000E+00  -2.09597091701473E-08   1.63474262454867E-08   3.97134543316075E-09  -6.40937491499839E-10
      1.03500089743702E-06   5.00000000000000E+01   5.00000000000001E+01   0.00000000000000E+00  -1.36909382579565E-09
      6.14857823460043E-10   8.22941454704395E-10   6.87054523687838E-11   3.70113767973091E-07
      3.37500000000000E-08
      0.00000000000000E+00   0.00000000000000E+00   0.00000000000000E+00  -5.05407515354021E-09   5.00057835133846E-09
      5.19474550064464E-25  -5.34968022017495E-11  -1.40511466541047E-06   4.99999998653760E+01   4.99999998653761E+01
      0.00000000000000E+00   4.42774994230750E-08  -3.40458360309131E-08  -1.02403104636974E-08  -8.64707153553113E-12
      1.03500089743694E-06   5.00000000000000E+01   5.00000000000001E+01   0.00000000000000E+00  -1.01978884388809E-09
      5.76469506353050E-10   5.05479282572280E-10   6.21599450372381E-11   3.70113767973537E-07
      4.05000000000000E-08
      0.00000000000000E+00   0.00000000000000E+00   0.00000000000000E+00  -7.20624672803111E-09   7.15712818870160E-09
      5.45258798546667E-25  -4.91185393295075E-11  -1.40511466541080E-06   4.99999998653875E+01   4.99999998653876E+01
      0.00000000000000E+00   4.09903081133945E-08  -3.07461914458267E-08  -1.02403104636974E-08   3.80620387033627E-12
      1.03500089743687E-06   5.00000000000000E+01   5.00000000000001E+01   0.00000000000000E+00  -9.98866509123296E-10
      5.38689464502973E-10   5.05484808425875E-10   4.53077638055516E-11   3.70113767973932E-07
      4.72500000000000E-08
      0.00000000000000E+00   0.00000000000000E+00   0.00000000000000E+00  -5.75018771808580E-09   5.70345230984761E-09
      5.89867746116980E-25  -4.67354082381994E-11  -1.40511466541112E-06   4.99999998653985E+01   4.99999998653986E+01
      0.00000000000000E+00  -9.91062994106670E-09   6.69025486965253E-09   3.20016945995562E-09  -2.02056114585485E-11
      1.03500089743682E-06   5.00000000000000E+01   5.00000000000001E+01   0.00000000000000E+00  -1.55038980237597E-09
      5.04139134042517E-10   1.11323982399086E-09   6.69891556574071E-11   3.70113767974303E-07
      5.40000000000000E-08
      0.00000000000000E+00   0.00000000000000E+00   0.00000000000000E+00  -4.20576131007008E-09   4.16115497970461E-09
      6.45441398496936E-25  -4.46063303654690E-11  -1.40511466541142E-06   4.99999998654090E+01   4.99999998654091E+01
      0.00000000000000E+00  -1.46315853350957E-09  -1.37390035787606E-10   1.62056154963530E-09   2.00129803381308E-11
      1.03500089743677E-06   5.00000000000000E+01   5.00000000000001E+01   0.00000000000000E+00  -2.19504691523788E-09
      4.73538754601173E-10   1.74617334484589E-09   2.46651842091809E-11   3.70113767974648E-07
      6.07500000000000E-08
      0.00000000000000E+00   0.00000000000000E+00   0.00000000000000E+00  -6.12622535542905E-09   6.08344666322815E-09
      6.89815316047811E-25  -4.27786922009007E-11  -1.40511466541170E-06   4.99999998654190E+01   4.99999998654189E+01
      0.00000000000000E+00   4.24356093694608E-08  -3.17778510061352E-08  -1.06625022714511E-08  -4.74390812551022E-12
      1.03500089743675E-06   5.00000000000000E+01   5.00000000000001E+01   0.00000000000000E+00  -1.50613963059605E-09
      4.40422133719831E-10   1.11325216254067E-09   4.75346656644489E-11   3.70113767974969E-07
      6.75000000000000E-08
      0.00000000000000E+00   0.00000000000000E+00   0.00000000000000E+00  -6.75144539416381E-09   6.71029803763785E-09
      7.21025663513339E-25  -4.11473565259547E-11  -1.40511466541198E-06   4.99999998654287E+01   4.99999998654288E+01
      0.00000000000000E+00  -3.17057105590867E-08   2.49014814491409E-08   6.79091445378190E-09  -1.33146561639116E-11
      1.03500089743672E-06   5.00000000000000E+01   5.00000000000001E+01   0.00000000000000E+00  -2.10695680936315E-09
      4.15185536625669E-10   1.74618348819357E-09   5.44122154560886E-11   3.70113767975264E-07
      7.42500000000000E-08
      0.00000000000000E+00   0.00000000000000E+00   0.00000000000000E+00  -5.69159566361785E-09   5.65203947860160E-09
      7.78202441412652E-25  -3.95561850162478E-11  -1.40511466541225E-06   4.99999998654380E+01   4.99999998654379E+01
      0.00000000000000E+00   3.62600266092622E-08  -2.60177495396722E-08  -1.02403104636975E-08   1.96660589252881E-12
      1.03500089743672E-06   5.00000000000000E+01   5.00000000000001E+01   0.00000000000000E+00  -1.46205220310861E-09
      3.86372118362309E-10   1.11326364188902E-09   3.75835571427141E-11   3.70113767975545E-07
      8.10000000000000E-08
      0.00000000000000E+00   0.00000000000000E+00   0.00000000000000E+00  -7.00404711335144E-09   6.96579449796543E-09
      8.15992315739738E-25  -3.82526153860017E-11  -1.40511466541251E-06   4.99999998654469E+01   4.99999998654469E+01
      0.00000000000000E+00  -6.16267532344232E-09   3.55239632131232E-09   2.61643254191719E-09   6.15353978718514E-12
      1.03500089743672E-06   5.00000000000000E+01   5.00000000000001E+01   0.00000000000000E+00  -1.44356580101002E-09
      3.62380029500556E-10   1.11326803229324E-09   3.20822607837730E-11   3.70113767975788E-07
      8.77500000000000E-08
      0.00000000000000E+00   0.00000000000000E+00   0.00000000000000E+00  -4.25067311675612E-09   4.21374070401843E-09
      8.83585208609974E-25  -3.69324127376885E-11  -1.40511466541276E-06   4.99999998654556E+01   4.99999998654558E+01
      0.00000000000000E+00  -3.67362936257761E-08   2.66512268632057E-08   1.01019037515614E-08   1.68369889910042E-11
      1.03500089743673E-06   5.00000000000000E+01   5.00000000000001E+01   0.00000000000000E+00  -1.43200838095988E-09
      3.38917743893486E-10   1.11327151433798E-09   2.01808772715796E-11   3.70113767976030E-07
      9.45000000000000E-08
      0.00000000000000E+00   0.00000000000000E+00   0.00000000000000E+00  -5.70734068168329E-09   5.67145538339416E-09
      9.30075277223524E-25  -3.58852982891323E-11  -1.40511466541300E-06   4.99999998654640E+01   4.99999998654640E+01
      0.00000000000000E+00  -3.57375765962421E-08   2.65941877689803E-08   9.13588834964540E-09  -7.50047761643544E-12
      1.03500089743676E-06   5.00000000000000E+01   5.00000000000001E+01   0.00000000000000E+00  -1.38621769773178E-09
      3.16333316431845E-10   1.11327666170844E-09   4.33922804085028E-11   3.70113767976247E-07
      1.01250000000000E-07
      0.00000000000000E+00   5.55265727735544E-12   0.00000000000000E+00   1.03168334536215E-08  -5.55262189940325E-03
     -1.84789774405908E-21  -5.55261158256980E-03  -1.40512480339193E-06   5.00003572117255E+01   5.00003572033758E+01
      0.00000000000000E+00   6.28909342284139E-05   3.66344855440100E-04   7.92027085730509E-03   8.34950664697361E-03
      1.03501175580937E-06   5.00000000000000E+01   5.00000000027969E+01   0.00000000000000E+00  -1.35379980214362E-08
     -3.79384208225401E-05  -2.75894310730357E-03  -2.79689506612413E-03   3.70113047582566E-07
      1.08000000000000E-07
      0.00000000000000E+00   3.82046553362149E-12   0.00000000000000E+00   3.54368693051461E-10  -3.82051436681279E-03
     -1.27107921967293E-21  -3.82051401244410E-03  -1.40515053931628E-06   5.00012514249088E+01   5.00012514188207E+01
      0.00000000000000E+00   4.47839341294881E-05   3.76504307229342E-04   5.66689630736206E-03   6.08818454872089E-03
      1.03504577675180E-06   5.00000000000000E+01   5.00000000022678E+01   0.00000000000000E+00  -6.58913139514670E-09
     -2.01150011217322E-04  -2.06651393621006E-03  -2.26767053655878E-03   3.70104762564471E-07
      1.14750000000000E-07
      0.00000000000000E+00   3.95015030255852E-12   0.00000000000000E+00  -1.02327330089548E-11  -3.95015339191668E-03
     -1.31427346027731E-21  -3.95015340214941E-03  -1.40517709028545E-06   5.00021754128924E+01   5.00021754065822E+01
      0.00000000000000E+00   4.63293621089361E-05   3.89848573217861E-04   5.87393382771670E-03   6.31011176304349E-03
      1.03508065321118E-06   5.00000000000000E+01   5.00000000023598E+01   0.00000000000000E+00  -1.56776733000507E-08
     -3.54241544944696E-04  -2.00570113831382E-03  -2.35995836093182E-03   3.70096437074268E-07
      1.21500000000000E-07
      0.00000000000000E+00  -2.46603119402209E-13   0.00000000000000E+00   5.99595758768747E-10   2.46585401341574E-04
      8.35955315047294E-23   2.46586000937333E-04  -1.40519051494200E-06   5.00026392509311E+01   5.00026392506922E+01
      0.00000000000000E+00  -3.29821158022109E-06  -5.59078751215342E-05   2.97940136114804E-04   2.38734049413049E-04
      1.03510023466329E-06   5.00000000000000E+01   5.00000000004853E+01   0.00000000000000E+00  -3.00456870424861E-09
     -4.33404182376196E-04  -5.19128634581559E-05  -4.85320050403056E-04   3.70090280278700E-07
      1.28250000000000E-07
      0.00000000000000E+00  -6.91271820924565E-09   0.00000000000000E+00   2.30257299596943E-06   6.91271587421265E+00
      2.31247328146982E-18   6.91271817678564E+00  -1.39145317946188E-06   4.95194197463434E+01   4.95194292530985E+01
      0.00000000000000E+00  -8.18400821999833E-02  -7.43019161424157E-01  -8.68189577103144E+00  -9.50675501465558E+00
      1.02000749645142E-06   5.00000000000000E+01   4.99999974059631E+01   0.00000000000000E+00   2.06661048002003E-05
      5.54176058496373E-02   2.53859856591613E+00   2.59403683787057E+00   3.71445683010465E-07
      1.35000000000000E-07
      0.00000000000000E+00  -4.58755746286035E-08   0.00000000000000E+00   5.96256665776462E-06   4.58755686276708E+01
      1.53492516894718E-17   4.58755745902374E+01  -1.22844089923887E-06   4.38203821310907E+01   4.38204382536867E+01
      0.00000000000000E+00  -5.40063334764919E-01  -4.75484495365156E+00  -5.08276878707173E+01  -5.61225961591338E+01
      8.55643774462297E-07   5.00000000000000E+01   4.99999897529783E+01   0.00000000000000E+00   7.34231816968172E-05
      5.65573846347197E-01   9.68137429938268E+00   1.02470215689116E+01   3.72797124776572E-07
      1.41750000000000E-07
      0.00000000000000E+00  -5.51877054620299E-08   0.00000000000000E+00  -5.99042607668723E-07   5.51877060948526E+01
      1.84700451778689E-17   5.51877054958100E+01  -8.58256194627906E-07   3.09314369472113E+01   3.09314995821535E+01
      0.00000000000000E+00  -6.47618967125993E-01  -5.66713270021676E+00  -5.63201905700899E+01  -6.26349422374327E+01
      5.16648217356326E-07   5.00000000000000E+01   4.99999925527631E+01   0.00000000000000E+00   1.94808218092382E-05
      1.29355689884566E+00   6.15366036195119E+00   7.44723674161865E+00   3.41607977271578E-07
      1.48500000000000E-07
      0.00000000000000E+00  -4.45671293368871E-08   0.00000000000000E+00  -1.60160519130883E-06   4.45671309338665E+01
      1.49187734118121E-17   4.45671293322613E+01  -5.19493132180121E-07   1.91417115974301E+01   1.91417610385677E+01
      0.00000000000000E+00  -5.23107746145183E-01  -4.77042832348573E+00  -4.41476016107374E+01  -4.94411376803683E+01
      2.24153614755893E-07   5.00000000000000E+01   4.99999951259917E+01   0.00000000000000E+00   4.07239259907697E-06
      1.45184386774460E+00   3.42216040797034E+00   4.87400834810754E+00   2.95339517424231E-07
      1.55250000000000E-07
      0.00000000000000E+00  -3.10579043375249E-08   0.00000000000000E+00  -1.46726860388744E-06   3.10579058208010E+01
      1.03982713816301E-17   3.10579043535324E+01  -2.67484117368568E-07   1.03647737645435E+01   1.03648079831726E+01
      0.00000000000000E+00  -3.65037494494622E-01  -3.45222201406623E+00  -3.04013695702879E+01  -3.42186290788487E+01
      9.33169312882034E-09   5.00000000000000E+01   4.99999968392753E+01   0.00000000000000E+00  -2.39907325128365E-06
      1.48031521517415E+00   1.68041190921538E+00   3.16072472531628E+00   2.58152424239748E-07
      1.62000000000000E-07
      0.00000000000000E+00  -1.79599315995096E-08   0.00000000000000E+00  -1.40566071725854E-06   1.79599330669234E+01
      6.01375274608044E-18   1.79599316612627E+01  -1.07930996434502E-07   4.79563950451705E+00   4.79565926754212E+00
      0.00000000000000E+00  -2.11918192163702E-01  -2.03139596995333E+00  -1.75197109203996E+01  -1.97630250825166E+01
     -1.25727775229624E-07   5.00000000000000E+01   4.99999981969066E+01   0.00000000000000E+00  -5.98792591927453E-06
      1.43519286877024E+00   3.67906540409629E-01   1.80309342125395E+00   2.33658771664127E-07
      1.68750000000000E-07
      0.00000000000000E+00  -7.34159997605467E-09   0.00000000000000E+00  -1.05142695839299E-06   7.34160100896674E+00
      2.45855382611518E-18   7.34159995753978E+00  -2.94747881502852E-08   2.02887363963142E+00   2.02888174928791E+00
      0.00000000000000E+00  -8.87815044269271E-02  -8.50368317429750E-01  -7.17050666850167E+00  -8.10965649035835E+00
     -1.92541106807350E-07   5.00000000000000E+01   4.99999992319433E+01   0.00000000000000E+00  -8.46607764582568E-06
      1.34568414203474E+00  -5.77619143138545E-01   7.68056532818554E-01   2.22015894957635E-07
      1.75500000000000E-07
      0.00000000000000E+00  -1.67520226798616E-09   0.00000000000000E+00  -3.82341816675479E-07   1.67520260748765E+00
      5.61181405350302E-19   1.67520222514584E+00  -5.21890937625293E-09   1.03861100056473E+00   1.03861291338460E+00
      0.00000000000000E+00  -2.63623212929962E-02  -2.53619708687852E-01  -1.63283784456946E+00  -1.91281987455031E+00
     -2.16620483009942E-07   5.00000000000000E+01   4.99999997623826E+01   0.00000000000000E+00  -9.90137266107789E-06
      1.22778719216581E+00  -9.90159641388624E-01   2.37617649404523E-01   2.21839392386195E-07
      1.82250000000000E-07
      0.00000000000000E+00  -3.45527248953692E-10   0.00000000000000E+00  -6.07755600168230E-08   3.45527233356062E-01
      1.15751641289313E-19   3.45527172580502E-01  -9.11643194724884E-12   7.91499254993048E-01   7.91499662105306E-01
      0.00000000000000E+00  -5.60566580743306E-03  -5.42432854395067E-02  -3.47263309468791E-01  -4.07112260715730E-01
     -2.22627539710124E-07   5.00000000000000E+01   4.99999999384149E+01   0.00000000000000E+00  -1.06228823876206E-05
      1.09134529554323E+00  -1.02974958452560E+00   6.15850881352443E-02   2.22636656142069E-07
      1.89000000000000E-07
      0.00000000000000E+00  -9.44045418782377E-11   0.00000000000000E+00  -1.96379063373423E-08   9.44046023499545E-02
      3.16248098100322E-20   9.44045827120482E-02   1.21624998645679E-09   7.32307916055174E-01   7.32308040322296E-01
      0.00000000000000E+00  -1.54439767427755E-03  -1.50457863778641E-02  -1.07676936793464E-01  -1.24267120845606E-01
     -2.24127443634601E-07   5.00000000000000E+01   4.99999999701376E+01   0.00000000000000E+00  -9.65050231268823E-06
      9.55023852878716E-01  -9.25151664242906E-01   2.98625381334976E-02   2.22911193648144E-07
      1.95750000000000E-07
      0.00000000000000E+00  -4.79531475881590E-11   0.00000000000000E+00  -2.14271304849586E-09   4.79531723078034E-02
      1.60639427103097E-20   4.79531701650903E-02   1.64268613264236E-09   7.11575931977870E-01   7.11576003440459E-01
      0.00000000000000E+00  -7.87915246981102E-04  -7.73710023451157E-03  -6.29375718420528E-02  -7.14625873235454E-02
     -2.24727621998626E-07   5.00000000000000E+01   4.99999999764908E+01   0.00000000000000E+00  -7.52057561275481E-06
      8.43785110801641E-01  -8.20268173067564E-01   2.35094171584639E-02   2.23084935865985E-07
      2.02500000000000E-07
      0.00000000000000E+00  -4.17981725241966E-11   0.00000000000000E+00   2.48371854911888E-09   4.17981781954324E-02
      1.40022216872193E-20   4.17981806791509E-02   1.93231231191814E-09   6.97492345494627E-01   6.97492408846530E-01
      0.00000000000000E+00  -6.86863470078936E-04  -6.78081476820312E-03  -5.58842233481968E-02  -6.33519015864788E-02
     -2.25167340987078E-07   5.00000000000000E+01   4.99999999784463E+01   0.00000000000000E+00  -5.95867979637211E-06
      7.57200991909943E-01  -7.35641312322491E-01   2.15537209076554E-02   2.23235028675160E-07
      2.09250000000000E-07
      0.00000000000000E+00  -4.35374363126955E-11   0.00000000000000E+00  -2.45886872334635E-09   4.35374349674720E-02
      1.45847779827632E-20   4.35374325086033E-02   2.21662459799732E-09   6.83604088880599E-01   6.83604152836395E-01
      0.00000000000000E+00  -7.17794353385375E-04  -7.09792711775545E-03  -5.61400743907038E-02  -6.39557958618446E-02
     -2.25591983539558E-07   5.00000000000000E+01   4.99999999795817E+01   0.00000000000000E+00  -5.04172256833208E-06
      6.86569066767002E-01  -6.66145661691176E-01   2.04183633532578E-02   2.23375358941562E-07
      2.16000000000000E-07
      0.00000000000000E+00  -4.84859389086999E-11   0.00000000000000E+00   6.21776904017373E-10   4.84859960181639E-02
      1.62420029955195E-20   4.84859966399408E-02   2.52619052288172E-09   6.68468186808357E-01   6.68468255064338E-01
      0.00000000000000E+00  -8.00414538591233E-04  -7.94772786601580E-03  -5.95078392918473E-02  -6.82559816964543E-02
     -2.26035351493381E-07   5.00000000000000E+01   4.99999999802302E+01   0.00000000000000E+00  -4.40164299326143E-06
      6.26556277468042E-01  -6.06781890768518E-01   1.97699850565306E-02   2.23509160970500E-07
      2.22750000000000E-07
      0.00000000000000E+00  -5.62664739764983E-11   0.00000000000000E+00   6.03983112525362E-09   5.62664487749103E-02
      1.88483242555331E-20   5.62664548147414E-02   2.88125517595371E-09   6.51091515932532E-01   6.51091591858879E-01
      0.00000000000000E+00  -9.29264575676632E-04  -9.20165257254673E-03  -6.57954278420221E-02  -7.59263449902455E-02
     -2.26521649984809E-07   5.00000000000000E+01   4.99999999803402E+01   0.00000000000000E+00  -3.90220293532576E-06
      5.74041123622429E-01  -5.54377331243992E-01   1.96598901755009E-02   2.23640394808857E-07
      2.29500000000000E-07
      0.00000000000000E+00  -6.33112408545272E-11   0.00000000000000E+00  -3.26407124889383E-09   6.33112586983495E-02
      2.12083002909373E-20   6.33112554342782E-02   3.30142245327183E-09   6.30507160697480E-01   6.30507243607296E-01
      0.00000000000000E+00  -1.04619047974344E-03  -1.03305937912247E-02  -7.15330327319633E-02  -8.29098170029314E-02
     -2.27074603427418E-07   5.00000000000000E+01   4.99999999804014E+01   0.00000000000000E+00  -3.48975005349578E-06
      5.27155547436484E-01  -5.07553496117780E-01   1.95985615686508E-02   2.23773180974146E-07
      2.36250000000000E-07
      0.00000000000000E+00  -6.54064029997053E-11   0.00000000000000E+00   3.30407590508899E-10   6.54064274624757E-02
      2.19101916872908E-20   6.54064277928833E-02   3.74291584087380E-09   6.08850188295087E-01   6.08850272677911E-01
      0.00000000000000E+00  -1.08204824626953E-03  -1.06797546734859E-02  -7.26210183629427E-02  -8.43828212826981E-02
     -2.27644183481063E-07   5.00000000000000E+01   4.99999999810235E+01   0.00000000000000E+00  -3.15771023328128E-06
      4.85763970341607E-01  -4.66784419141559E-01   1.89763934898149E-02   2.23901267640189E-07
      2.43000000000000E-07
      0.00000000000000E+00  -6.53589192705690E-11   0.00000000000000E+00   5.03818032726867E-10   6.53589285402936E-02
      2.18943319091026E-20   6.53589290441116E-02   4.18408861192154E-09   5.87177275723516E-01   5.87177359235308E-01
      0.00000000000000E+00  -1.08284313465894E-03  -1.06841817538179E-02  -7.17447675993944E-02  -8.35117924878713E-02
     -2.28207882578544E-07   5.00000000000000E+01   4.99999999818471E+01   0.00000000000000E+00  -2.85486576749397E-06
      4.48270849194219E-01  -4.30115130884691E-01   1.81528634437602E-02   2.24023793966622E-07
      2.49750000000000E-07
      0.00000000000000E+00  -6.21202901471572E-11   0.00000000000000E+00   1.42313666901133E-09   6.21202383855692E-02
      2.08096289248284E-20   6.21202398087058E-02   4.60340023063031E-09   5.66549362462366E-01   5.66549441575720E-01
      0.00000000000000E+00  -1.03063028703834E-03  -1.01634901296726E-02  -6.79192313871506E-02  -7.91133518038615E-02
     -2.28741890031677E-07   5.00000000000000E+01   4.99999999830068E+01   0.00000000000000E+00  -2.60160849878785E-06
      4.14163186690156E-01  -3.97167473086503E-01   1.69931119951544E-02   2.24138489801045E-07
      2.56500000000000E-07
      0.00000000000000E+00  -5.71043735140426E-11   0.00000000000000E+00   3.35713264597269E-09   5.71043362511917E-02
      1.91296068881759E-20   5.71043396083243E-02   4.98885452298651E-09   5.47561800122962E-01   5.47561872889650E-01
      0.00000000000000E+00  -9.48672153848748E-04  -9.35182765980467E-03  -6.24661873153347E-02  -7.27666871289881E-02
     -2.29233054506237E-07   5.00000000000000E+01   4.99999999843377E+01   0.00000000000000E+00  -2.37443778651711E-06
      3.83028598301957E-01  -3.67363876343507E-01   1.56623475206631E-02   2.24244199983250E-07
      2.63250000000000E-07
      0.00000000000000E+00  -5.14605144126400E-11   0.00000000000000E+00  -3.54992154870094E-09   5.14605003993482E-02
      1.72391839381646E-20   5.14604968494267E-02   5.33621287672016E-09   5.30429827867731E-01   5.30429893631497E-01
      0.00000000000000E+00  -8.55961430472999E-04  -8.43611134540876E-03  -5.64716918258855E-02  -6.57637646017673E-02
     -2.29676945260421E-07   5.00000000000000E+01   4.99999999856967E+01   0.00000000000000E+00  -2.16955238342468E-06
      3.54532888411305E-01  -3.40227451106580E-01   1.43032677523408E-02   2.24340732383701E-07
      2.70000000000000E-07
      0.00000000000000E+00  -4.57858873242730E-11   0.00000000000000E+00  -5.05103209910811E-09   4.57859056946065E-02
      1.53384680881192E-20   4.57859006435744E-02   5.64526770606428E-09   5.15170229631566E-01   5.15170288407406E-01
      0.00000000000000E+00  -7.62411600064537E-04  -7.51314697100299E-03  -5.05002817522325E-02  -5.87758403233000E-02
     -2.30073662338796E-07   5.00000000000000E+01   4.99999999870100E+01   0.00000000000000E+00  -1.99491718638076E-06
      3.28397719634491E-01  -3.15405785037579E-01   1.29899396797250E-02   2.24428394632732E-07
      2.76750000000000E-07
      0.00000000000000E+00  -4.03353613946923E-11   0.00000000000000E+00   2.04364236272003E-09   4.03353730367604E-02
      1.35127073867500E-20   4.03353750804028E-02   5.91753148785700E-09   5.01713805083838E-01   5.01713857171554E-01
      0.00000000000000E+00  -6.72318789594170E-04  -6.62469090161840E-03  -4.47907060251037E-02  -5.20877157163163E-02
     -2.30425227992200E-07   5.00000000000000E+01   4.99999999882478E+01   0.00000000000000E+00  -1.82570248657573E-06
      3.04385999843969E-01  -2.92631833505569E-01   1.17523406359134E-02   2.24507696504342E-07
      2.83500000000000E-07
      0.00000000000000E+00  -3.52007813611055E-11   0.00000000000000E+00   1.46425920058456E-09   3.52008071602903E-02
      1.17927319652170E-20   3.52008086245495E-02   6.15513694607270E-09   4.89960205531993E-01   4.89960251331643E-01
      0.00000000000000E+00  -5.87241788739535E-04  -5.78580321176131E-03  -3.94266050328675E-02  -4.57996500333684E-02
     -2.30734341009794E-07   5.00000000000000E+01   4.99999999894011E+01   0.00000000000000E+00  -1.68017222701055E-06
      2.82292531516138E-01  -2.71692009935092E-01   1.05988414088192E-02   2.24579204063720E-07
      2.90250000000000E-07
      0.00000000000000E+00  -3.04007917051658E-11   0.00000000000000E+00  -4.48262280868649E-09   3.04008048404090E-02
      1.01847974051894E-20   3.04008003577862E-02   6.36034234848776E-09   4.79801224390404E-01   4.79801264319981E-01
      0.00000000000000E+00  -5.07570875051650E-04  -5.00023855382731E-03  -3.44217663821845E-02  -3.99295758110635E-02
     -2.31003821008258E-07   5.00000000000000E+01   4.99999999904713E+01   0.00000000000000E+00  -1.54782638268829E-06
      2.61937767914451E-01  -2.52407444634791E-01   9.52877545327726E-03   2.24643478659771E-07
      2.97000000000000E-07
      0.00000000000000E+00  -2.59284122268453E-11   0.00000000000000E+00   2.92172790065573E-09   2.59283555104757E-02
      8.68663352716667E-21   2.59283584322036E-02   6.53535876790513E-09   4.71130959057930E-01   4.71130993524032E-01
      0.00000000000000E+00  -4.33190819015155E-04  -4.26682507159582E-03  -2.97660850357018E-02  -3.44661009263128E-02
     -2.31236410487669E-07   5.00000000000000E+01   4.99999999914622E+01   0.00000000000000E+00  -1.43529493625002E-06
      2.43163340431327E-01  -2.34624162642281E-01   8.53774249410981E-03   2.24701051719764E-07
      3.03750000000000E-07
      0.00000000000000E+00  -2.17631615497467E-11   0.00000000000000E+00  -4.88900682387507E-09   2.17632281415674E-02
      7.29142828978630E-21   2.17632232525606E-02   6.68226052485991E-09   4.63848639497696E-01   4.63848668881407E-01
      0.00000000000000E+00  -3.63844387571432E-04  -3.58302193542165E-03  -2.54368455169726E-02  -2.93837118399657E-02
     -2.31434679511911E-07   5.00000000000000E+01   4.99999999923795E+01   0.00000000000000E+00  -1.32610028653871E-06
      2.25828730383279E-01  -2.18206915695587E-01   7.62048858740543E-03   2.24752418987050E-07
      3.10500000000000E-07
      0.00000000000000E+00  -1.78859359685310E-11   0.00000000000000E+00   9.65727061587936E-10   1.78859393295277E-02
      5.99263028773803E-21   1.78859402952547E-02   6.80299062185286E-09   4.57860374041789E-01   4.57860398699100E-01
      0.00000000000000E+00  -2.99188980145118E-04  -2.94544652791147E-03  -2.14126741851578E-02  -2.46573096932144E-02
     -2.31601028510286E-07   5.00000000000000E+01   4.99999999932286E+01   0.00000000000000E+00  -1.21553826418069E-06
      2.09808630527371E-01  -2.03036045591148E-01   6.77136939795876E-03   2.24798037888432E-07
      3.17250000000000E-07
      0.00000000000000E+00  -1.42738661436334E-11   0.00000000000000E+00   2.22722509345142E-09   1.42738509592841E-02
      4.78266688334164E-21   1.42738531865092E-02   6.89933913086180E-09   4.53078397959374E-01   4.53078418218491E-01
      0.00000000000000E+00  -2.38919036483750E-04  -2.35108195552429E-03  -1.76691164729506E-02  -2.02591174649587E-02
     -2.31737670204719E-07   5.00000000000000E+01   4.99999999940148E+01   0.00000000000000E+00  -1.13378274618889E-06
      1.94990862198880E-01  -1.89004464137685E-01   5.98526427844898E-03   2.24838331073857E-07
      3.24000000000000E-07
      0.00000000000000E+00  -1.09089505065612E-11   0.00000000000000E+00  -3.01061071349829E-09   1.09089807459206E-02