DF-ISE text

Info {
  version   = 1.0
  type      = xyplot
  datasets  = [
    "time"
    "Gate OuterVoltage" "Gate InnerVoltage" "Gate QuasiFermiPotential" "Gate DisplacementCurrent" "Gate eCurrent"
    "Gate hCurrent" "Gate TotalCurrent" "Gate Charge" "Emitter OuterVoltage" "Emitter InnerVoltage"
    "Emitter QuasiFermiPotential" "Emitter DisplacementCurrent" "Emitter eCurrent" "Emitter hCurrent" "Emitter TotalCurrent"
    "Emitter Charge" "Collector OuterVoltage" "Collector InnerVoltage" "Collector QuasiFermiPotential" "Collector DisplacementCurrent"
    "Collector eCurrent" "Collector hCurrent" "Collector TotalCurrent" "Collector Charge" ]
  functions = [
    Time
    OuterVoltage InnerVoltage QuasiFermiPotential DisplacementCurrent eCurrent
    hCurrent TotalCurrent Charge OuterVoltage InnerVoltage
    QuasiFermiPotential DisplacementCurrent eCurrent hCurrent TotalCurrent
    Charge OuterVoltage InnerVoltage QuasiFermiPotential DisplacementCurrent
    eCurrent hCurrent TotalCurrent Charge ]
}

Data {
      0.00000000000000E+00
      0.00000000000000E+00   0.00000000000000E+00   0.00000000000000E+00   0.00000000000000E+00  -9.21895849641363E-25
      9.21895849641363E-25   0.00000000000000E+00   1.59326300492148E-08   0.00000000000000E+00   2.55695748385754E-13
      0.00000000000000E+00   8.96560074660577E-22  -4.09468695636386E-12  -2.55683649243255E-07  -2.55687743930210E-07
     -2.42262548934341E-07   4.99999998696550E+01   4.99999998696548E+01   0.00000000000000E+00  -3.69171795448473E-21
      2.55688093153017E-07  -3.49222803627945E-13   2.55687743930210E-07   2.26329918885128E-07
      6.75000000000000E-09
      0.00000000000000E+00   0.00000000000000E+00   0.00000000000000E+00  -6.50239367598495E-09   6.50248769268756E-09
      3.51818964768877E-25   9.40167026098050E-14   1.59326300493050E-08   0.00000000000000E+00   2.55695748385754E-13
      0.00000000000000E+00   6.95092862590671E-10  -5.19912513597555E-10  -2.55888505394676E-07  -2.55713325045683E-07
     -2.42262548924186E-07   4.99999998652667E+01   4.99999998652663E+01   0.00000000000000E+00  -5.23278592801726E-10
      2.55480038518125E-07   7.56472077862621E-10   2.55713232003186E-07   2.26329918874880E-07
      1.35000000000000E-08
      0.00000000000000E+00   0.00000000000000E+00   0.00000000000000E+00  -5.05471868653446E-09   5.05492329133463E-09
      4.03874461411232E-25   2.04604800173153E-13   1.59326300493051E-08   0.00000000000000E+00   2.55695748385754E-13
      0.00000000000000E+00  -1.19224115631867E-10   6.45862778871553E-11  -2.55631596460556E-07  -2.55686234298301E-07
     -2.42262548924214E-07   4.99999998652879E+01   4.99999998652875E+01   0.00000000000000E+00  -2.60884543799670E-09
      2.55496385586597E-07   2.79847929583600E-09   2.55686019444436E-07   2.26329918874909E-07
      2.02500000000000E-08
      0.00000000000000E+00   0.00000000000000E+00   0.00000000000000E+00  -4.60289835132400E-09   4.60290116408511E-09
      5.01758677418855E-25   2.81276111121876E-15   1.59326300493050E-08   0.00000000000000E+00   2.55695748385754E-13
      0.00000000000000E+00   3.98844630122760E-11  -6.20804108578656E-11  -2.55667995347479E-07  -2.55690191295325E-07
     -2.42262548924220E-07   4.99999998653013E+01   4.99999998653010E+01   0.00000000000000E+00  -1.51566951006805E-09
      2.55509233853524E-07   1.69662573340054E-09   2.55690190076857E-07   2.26329918874917E-07
      2.70000000000000E-08
      0.00000000000000E+00   0.00000000000000E+00   0.00000000000000E+00  -6.54839575452301E-09   6.55106311690915E-09
      5.68867873968236E-25   2.66736238614296E-12   1.59326300493051E-08   0.00000000000000E+00   2.55695748385754E-13
      0.00000000000000E+00  -6.85963540858895E-10   5.59343965127855E-10  -2.55542579612478E-07  -2.55669199188209E-07
     -2.42262548924227E-07   4.99999998653125E+01   4.99999998653121E+01   0.00000000000000E+00  -6.12658196716541E-10
      2.55522739978978E-07   7.56471018109889E-10   2.55666552800372E-07   2.26329918874921E-07
      3.37500000000000E-08
      0.00000000000000E+00   0.00000000000000E+00   0.00000000000000E+00  -4.46603385400756E-09   4.46599915491744E-09
      6.08462681925245E-25  -3.46990901198954E-14   1.59326300493049E-08   0.00000000000000E+00   2.55695748385754E-13
      0.00000000000000E+00   6.83923059116352E-11  -7.34812153654240E-11  -2.55685921473430E-07  -2.55691010382883E-07
     -2.42262548924234E-07   4.99999998653255E+01   4.99999998653251E+01   0.00000000000000E+00  -3.01169406639222E-09
      2.55534637694814E-07   3.16810030420262E-09   2.55691043932625E-07   2.26329918874930E-07
      4.05000000000000E-08
      0.00000000000000E+00   0.00000000000000E+00   0.00000000000000E+00  -4.47485873161503E-09   4.47484775587314E-09
      6.41466628726631E-25  -1.09757418874685E-14   1.59326300493048E-08   0.00000000000000E+00   2.55695748385754E-13
      0.00000000000000E+00   3.19942163522273E-11  -2.70411289264895E-11  -2.55696116645314E-07  -2.55691163557888E-07
     -2.42262548924242E-07   4.99999998653372E+01   4.99999998653370E+01   0.00000000000000E+00  -5.76862164373147E-11
      2.55542783687238E-07   2.06076795727339E-10   2.55691174266528E-07   2.26329918874939E-07
      4.72500000000000E-08
      0.00000000000000E+00   0.00000000000000E+00   0.00000000000000E+00  -7.24525679505106E-09   7.24524651436172E-09
      6.77851596330101E-25  -1.02806893434342E-14   1.59326300493048E-08   0.00000000000000E+00   2.55695748385754E-13
      0.00000000000000E+00  -9.75990599253248E-12  -9.20655219898807E-12  -2.55672202667410E-07  -2.55691169125601E-07
     -2.42262548924250E-07   4.99999998653483E+01   4.99999998653481E+01   0.00000000000000E+00  -6.85520289572808E-11
      2.55553656114403E-07   2.06075963064462E-10   2.55691180048511E-07   2.26329918874947E-07
      5.40000000000000E-08
      0.00000000000000E+00   0.00000000000000E+00   0.00000000000000E+00  -5.68795512336644E-09   5.68794314028111E-09
      7.40179285276560E-25  -1.19830853294650E-14   1.59326300493047E-08   0.00000000000000E+00   2.55695748385754E-13
      0.00000000000000E+00   4.41833379556573E-12  -1.31947967884841E-11  -2.55682397839295E-07  -2.55691174302288E-07
     -2.42262548924259E-07   4.99999998653589E+01   4.99999998653586E+01   0.00000000000000E+00  -1.05114339191790E-09
      2.55564733724477E-07   1.17759517156574E-09   2.55691185504125E-07   2.26329918874953E-07
      6.07500000000000E-08
      0.00000000000000E+00   0.00000000000000E+00   0.00000000000000E+00  -4.05717394406826E-09   4.05716305997782E-09
      7.95771812651189E-25  -1.08840904416937E-14   1.59326300493046E-08   0.00000000000000E+00   2.55695748385754E-13
      0.00000000000000E+00  -5.76430315352871E-11   6.25613177437239E-11  -2.55696116645314E-07  -2.55691198359106E-07
     -2.42262548924267E-07   4.99999998653691E+01   4.99999998653688E+01   0.00000000000000E+00  -3.18833011637102E-09
      2.55575392310676E-07   3.30414732854828E-09   2.55691209522853E-07   2.26329918874964E-07
      6.75000000000000E-08
      0.00000000000000E+00   0.00000000000000E+00   0.00000000000000E+00  -4.21856192858061E-09   4.21855069520315E-09
      8.28061484346927E-25  -1.12333774624438E-14   1.59326300493045E-08   0.00000000000000E+00   2.55695748385754E-13
      0.00000000000000E+00   2.49738590714599E-11  -2.00857733477724E-11  -2.55696116645315E-07  -2.55691228559591E-07
     -2.42262548924276E-07   4.99999998653789E+01   4.99999998653786E+01   0.00000000000000E+00  -1.64183412597903E-09
      2.55582563238280E-07   1.75051095436045E-09   2.55691240066661E-07   2.26329918874972E-07
      7.42500000000000E-08
      0.00000000000000E+00   0.00000000000000E+00   0.00000000000000E+00  -4.01919257865154E-09   4.01918080623969E-09
      8.59549176507904E-25  -1.17724118476378E-14   1.59326300493045E-08   0.00000000000000E+00   2.55695748385754E-13
      0.00000000000000E+00   3.20806547084788E-11  -3.03788615212645E-11  -2.55692949989583E-07  -2.55691248196396E-07
     -2.42262548924285E-07   4.99999998653883E+01   4.99999998653882E+01   0.00000000000000E+00  -1.03068362339487E-10
      2.55588256671263E-07   2.06070664300757E-10   2.55691258973225E-07   2.26329918874981E-07
      8.10000000000000E-08
      0.00000000000000E+00   0.00000000000000E+00   0.00000000000000E+00  -4.62221678307958E-09   4.62220529159682E-09
      9.18630045354853E-25  -1.14914827628995E-14   1.59326300493043E-08   0.00000000000000E+00   2.55695748385754E-13
      0.00000000000000E+00  -3.24687641936752E-11   2.70480394872840E-11  -2.55685865987715E-07  -2.55691286712422E-07
     -2.42262548924294E-07   4.99999998653974E+01   4.99999998653972E+01   0.00000000000000E+00  -4.23165484044380E-11
      2.55592926247158E-07   1.40689450677956E-10   2.55691299149432E-07   2.26329918874990E-07
      8.77500000000000E-08
      0.00000000000000E+00   0.00000000000000E+00   0.00000000000000E+00  -7.26021700266898E-09   7.26020519222254E-09
      9.85484134221929E-25  -1.18104464434542E-14   1.59326300493043E-08   0.00000000000000E+00   2.55695748385754E-13
      0.00000000000000E+00  -6.12679343535639E-11   6.29162787544535E-11  -2.55692949989583E-07  -2.55691301645182E-07
     -2.42262548924303E-07   4.99999998654062E+01   4.99999998654061E+01   0.00000000000000E+00  -3.08154632595874E-09
      2.55604673908862E-07   3.16818546290527E-09   2.55691313045808E-07   2.26329918875000E-07
      9.45000000000000E-08
      0.00000000000000E+00   0.00000000000000E+00   0.00000000000000E+00  -4.45749424389063E-09   4.45748137041379E-09
      1.03685603244945E-24  -1.28734768394598E-14   1.59326300493042E-08   0.00000000000000E+00   2.55695748385754E-13
      0.00000000000000E+00   6.13603775562961E-11  -5.97493767293621E-11  -2.55692949989584E-07  -2.55691338988757E-07
     -2.42262548924312E-07   4.99999998654147E+01   4.99999998654144E+01   0.00000000000000E+00  -9.63285915542150E-10
      2.55607897451261E-07   1.04674054698238E-09   2.55691352082701E-07   2.26329918875007E-07
      1.01250000000000E-07
      3.75000000000008E-01   3.74999994153245E-01   0.00000000000000E+00   5.09212331529488E-08   5.84676089503816E+00
      1.95846140031930E-18   5.84676094595939E+00   2.32343831674638E-08   0.00000000000000E+00   5.83841167513520E-06
      0.00000000000000E+00  -1.01175420190778E-01  -1.00482958891178E+00  -4.73240666600733E+00  -5.83841167510989E+00
     -2.49550715455710E-07   5.00003572116763E+01   5.00003572200255E+01   0.00000000000000E+00   2.58203371093041E-08
     -1.48301666324230E-04  -8.20099500353244E-03  -8.34927084951956E-03   2.26316332288244E-07
      1.08000000000000E-07
      2.40000000000001E+00   2.39999999450821E+00   0.00000000000000E+00  -5.60731629475174E-08   5.49178464140535E+00
      1.83992587179970E-18   5.49178458533219E+00   6.13587126823814E-08   0.00000000000000E+00   5.48569633237650E-06
      0.00000000000000E+00  -1.01174702830624E-01  -1.03131388643069E+00  -4.35320774312895E+00  -5.48569633239026E+00
     -2.87633766846006E-07   5.00012514248597E+01   5.00012514309478E+01   0.00000000000000E+00  -2.55261118203838E-08
     -5.75998067915100E-04  -5.51222934790314E-03  -6.08825294193006E-03   2.26275054163623E-07
      1.14750000000000E-07
      4.42500000000001E+00   4.42499999479283E+00   0.00000000000000E+00  -1.35297060062247E-08   5.20720482124847E+00
      1.74476109926598E-18   5.20720480771876E+00   9.72932069229083E-08   0.00000000000000E+00   5.20090309013900E-06
      0.00000000000000E+00  -1.01174706699113E-01  -1.04436598500068E+00  -4.05536239847997E+00  -5.20090309017977E+00
     -3.23525962241308E-07   5.00021750471248E+01   5.00021750534264E+01   0.00000000000000E+00  -2.92505415088491E-08
     -9.86924149064863E-04  -5.31476413943830E-03  -6.30171753904467E-03   2.26232755318398E-07
      1.21500000000000E-07
      6.45000000000001E+00   6.44999999468133E+00   0.00000000000000E+00   1.44220008852161E-07   5.31870782830157E+00
      1.78208442440836E-18   5.31870797252158E+00   1.32283027080082E-07   0.00000000000000E+00   5.31467288361455E-06
      0.00000000000000E+00  -1.01174809073247E-01  -1.79715923067373E+00  -3.41633884385120E+00  -5.31467288359818E+00
     -3.58156652432774E-07   5.00028927309127E+01   5.00028927349479E+01   0.00000000000000E+00  -2.11163534594780E-08
     -1.27579310279746E-03  -2.75927470422424E-03  -4.03508892337517E-03   2.25873625352691E-07
      1.28250000000000E-07
      8.47500000000001E+00   8.47499998670759E+00   0.00000000000000E+00   1.20748976924995E-06   1.32924489090243E+01
      4.44995204497314E-18   1.32924501165141E+01   2.01872386873065E-07   0.00000000000000E+00   2.34136210958979E-05
      0.00000000000000E+00  -1.01182435175234E-01  -2.43768598992882E+01   1.06442123853989E+00  -2.34136210959236E+01
     -3.98271044555500E-07   4.92189355752314E+01   4.92189254540603E+01   0.00000000000000E+00   7.67715362969610E-05
      3.46555042466359E-01   9.77453916540692E+00   1.01211709794096E+01   1.96398657682438E-07
      1.35000000000000E-07
      1.05000000000000E+01   1.04999999867648E+01   0.00000000000000E+00  -1.52272719766809E-08   1.32351134718971E+01
      4.43118562914271E-18   1.32351134566698E+01   2.90043149409532E-07   0.00000000000000E+00   6.92485964737057E-05
      0.00000000000000E+00  -1.01189377828163E-01  -7.58121744232269E+01   6.66476732740541E+00  -6.92485964736497E+01
     -4.16754927735447E-07   4.27688141270952E+01   4.27687581136123E+01   0.00000000000000E+00   1.25228343406420E-04
      1.77126439957269E+00   5.42420933890636E+01   5.60134830169797E+01   1.26711778325913E-07
      1.41750000000000E-07
      1.25250000000000E+01   1.25249999907224E+01   0.00000000000000E+00  -6.46486405558358E-07   9.27764459760966E+00
      3.10718256971736E-18   9.27764395112325E+00   3.58604879394034E-07   0.00000000000000E+00   7.08266420887952E-05
      0.00000000000000E+00  -1.01170564887636E-01  -7.71623155597591E+01   6.43684403585461E+00  -7.08266420887921E+01
     -4.23497945235778E-07   2.99539408216257E+01   2.99538792726276E+01   0.00000000000000E+00   3.78477590623028E-05
      2.65617387752689E+00   5.88927864123832E+01   6.15489981376691E+01   6.48930658417424E-08
      1.48500000000000E-07
      1.45500000000000E+01   1.45499999911057E+01   0.00000000000000E+00  -8.22399611067154E-08   8.89437467151678E+00
      2.97900299016678E-18   8.89437458927682E+00   4.19441940409849E-07   0.00000000000000E+00   5.72242893729078E-05
      0.00000000000000E+00  -1.01170431070662E-01  -6.30754165148547E+01   5.95229757303699E+00  -5.72242893728884E+01
     -4.30749631328869E-07   1.84442259646478E+01   1.84441776347330E+01   0.00000000000000E+00   7.24800876000694E-06
      3.18529488247670E+00   4.51446126531266E+01   4.83299147836121E+01   1.13076909190225E-08
      1.55250000000000E-07
      1.50000000000000E+01   1.49999999998674E+01   0.00000000000000E+00  -1.48000532097023E-08   1.32519944834995E-01
      4.43590943278518E-20   1.32519930034942E-01   4.33773673203946E-07   0.00000000000000E+00   3.34419875437439E-05
      0.00000000000000E+00   3.85801146057283E-06  -3.88221621305326E+01   5.38017072874452E+00  -3.34419875437766E+01
     -4.04928227262952E-07   9.90137171223136E+00   9.90133840276374E+00   0.00000000000000E+00  -1.24686675641239E-05
      3.34659526726455E+00   2.99628848151455E+01   3.33094676137425E+01  -2.88454459409922E-08
      1.62000000000000E-07
      1.50000000000000E+01   1.49999999998761E+01   0.00000000000000E+00  -1.22319458448742E-07   1.23965812976056E-01
      4.14947692733670E-20   1.23965690656598E-01   4.34616304036818E-07   0.00000000000000E+00   1.91779146207495E-05
      0.00000000000000E+00   3.77789549641786E-06  -2.35498770666401E+01   4.37195866794799E+00  -1.91779146207966E+01
     -3.73417654110535E-07   4.57056672022882E+00   4.57054766627988E+00   0.00000000000000E+00  -2.47326039069742E-05
      3.24363451615792E+00   1.58103391465861E+01   1.90539489301401E+01  -6.11986499262806E-08
      1.68750000000000E-07
      1.50000000000000E+01   1.49999999999100E+01   0.00000000000000E+00  -1.46351032721699E-08   9.00531923867110E-02
      3.01485319760914E-20   9.00531777516077E-02   4.35335628398748E-07   0.00000000000000E+00   7.88503057304393E-06
      0.00000000000000E+00   2.42746827001747E-06  -1.00731467722483E+01   2.18811377105114E+00  -7.88503057372890E+00
     -3.53870469604841E-07   1.96366582630820E+00   1.96365803133080E+00   0.00000000000000E+00  -2.79219615701646E-05
      2.98678101384115E+00   4.80822430409777E+00   7.79497739597735E+00  -8.14651587939057E-08
      1.75500000000000E-07
      1.50000000000000E+01   1.49999999999656E+01   0.00000000000000E+00  -4.16429822499875E-08   3.43912072005069E-02
      1.15213904541805E-20   3.43911655575247E-02   4.35707459081442E-07   0.00000000000000E+00   2.03442480293659E-06
      0.00000000000000E+00   8.25852731732223E-07  -2.92582670894323E+00   8.91401080154929E-01  -2.03442480293557E+00
     -3.45671413663947E-07   1.03770748383878E+00   1.03770548380515E+00   0.00000000000000E+00  -2.48480391614233E-05
      2.65629605277956E+00  -6.56237567362350E-01   2.00003363737805E+00  -9.00360454174931E-08
      1.82250000000000E-07
      1.50000000000000E+01   1.49999999999895E+01   0.00000000000000E+00  -5.00922832567608E-08   1.04828030468398E-02
      3.51972075505379E-21   1.04827529545566E-02   4.35807353329169E-07   0.00000000000000E+00   6.66502901021236E-07
      0.00000000000000E+00   1.82778509744329E-07  -9.80207144280134E-01   3.13704060495123E-01  -6.66502901006501E-01
     -3.43021253184288E-07   8.16855948982546E-01   8.16855292962400E-01   0.00000000000000E+00  -2.04411550921816E-05
      2.34464175181269E+00  -1.68860116260568E+00   6.56020148051926E-01  -9.27861001448793E-08
      1.89000000000000E-07
      1.50000000000000E+01   1.49999999999973E+01   0.00000000000000E+00  -4.27180256197365E-08   2.72018206197004E-03
      9.20707081497720E-22   2.72013934394442E-03   4.35837904641919E-07   0.00000000000000E+00   2.94154970423001E-07
      0.00000000000000E+00   3.35477872736402E-08  -3.82741538519875E-01   8.85865346064598E-02  -2.94154970365627E-01
     -3.42123303824841E-07   7.43986297194100E-01   7.43986005759269E-01   0.00000000000000E+00  -1.72834515748590E-05
      2.07117534327599E+00  -1.77972322880272E+00   2.91434831021697E-01  -9.37146008170775E-08
      1.95750000000000E-07
      1.50000000000000E+01   1.49999999999993E+01   0.00000000000000E+00  -1.07379414094980E-07   7.10600174113891E-04
      2.49108426753283E-22   7.10492794699796E-04   4.35845092733838E-07   0.00000000000000E+00   2.17399805442508E-07
      0.00000000000000E+00   5.41300068709293E-09  -2.41837439658081E-01   2.44376287454436E-02  -2.17399805499637E-01
     -3.41897774903072E-07   7.17893317894368E-01   7.17893101205056E-01   0.00000000000000E+00  -1.46809676091201E-05
      1.84828924723334E+00  -1.63158525356081E+00   2.16689312704922E-01  -9.39473178307651E-08
      2.02500000000000E-07
      1.50000000000000E+01   1.49999999999998E+01   0.00000000000000E+00  -8.43089948507734E-08   2.05429564773898E-04
      8.00395669821821E-23   2.05345255779047E-04   4.35846478814315E-07   0.00000000000000E+00   2.07067518834246E-07
      0.00000000000000E+00  -4.66763722535606E-10  -2.14550185316956E-01   7.48266701217296E-03  -2.07067518771546E-01
     -3.41850109921728E-07   7.03465069376401E-01   7.03464862514228E-01   0.00000000000000E+00  -1.19912020564667E-05
      1.67585367669282E+00  -1.46897951197501E+00   2.06862173515756E-01  -9.39963688925853E-08
      2.09250000000000E-07
      1.50000000000000E+01   1.50000000000000E+01   0.00000000000000E+00  -2.21593386022019E-08  -1.27673055795045E-05
      6.94329229904511E-24  -1.27894649181067E-05   4.35846392485427E-07   0.00000000000000E+00   2.15744481498375E-07
      0.00000000000000E+00  -4.23247421308946E-09  -2.16056901906950E-01   3.12424697530110E-04  -2.15744481441894E-01
     -3.41847466474498E-07   6.90924371233642E-01   6.90924155476369E-01   0.00000000000000E+00  -1.04427968585541E-05
      1.52861940633715E+00  -1.31285169263348E+00   2.15757270906813E-01  -9.39989260109289E-08
      2.16000000000000E-07
      1.50000000000000E+01   1.50000000000000E+01   0.00000000000000E+00   3.50583880483907E-08  -1.05092085671385E-04
     -2.37993531304069E-23  -1.05057027283336E-04   4.35845683350493E-07   0.00000000000000E+00   2.32459065232474E-07
      0.00000000000000E+00  -5.70860858952009E-09  -2.29735974273533E-01  -2.72308519416397E-03  -2.32459065176305E-01
     -3.41863854328008E-07   6.77966943063226E-01   6.77966710499104E-01   0.00000000000000E+00  -9.39512125462562E-06
      1.39865333900170E+00  -1.16607982167685E+00   2.32564122203596E-01  -9.39818290224831E-08
      2.22750000000000E-07
      1.50000000000000E+01   1.50000000000002E+01   0.00000000000000E+00   7.85503572344130E-08  -1.51847474495150E-04
     -3.93673928060771E-23  -1.51768924137916E-04   4.35844658910255E-07   0.00000000000000E+00   2.53782547931795E-07
      0.00000000000000E+00  -6.85911238550126E-09  -2.49564184707780E-01  -4.21835635303308E-03  -2.53782547919925E-01
     -3.41889590547060E-07   6.63282212661706E-01   6.63281958727390E-01   0.00000000000000E+00  -8.73830674572003E-06
      1.27978492371202E+00  -1.02584186856122E+00   2.53934316844057E-01  -9.39550683631942E-08
      2.29500000000000E-07
      1.50000000000000E+01   1.50000000000002E+01   0.00000000000000E+00  -1.37753041579210E-07  -1.96648006233297E-04
     -5.40882288020414E-23  -1.96785759274877E-04   4.35843227686624E-07   0.00000000000000E+00   2.82923619356004E-07
      0.00000000000000E+00  -5.98500412699699E-09  -2.77273421680422E-01  -5.65019176749499E-03  -2.82923619432921E-01
     -3.41926166998664E-07   6.45161359384851E-01   6.45161076264448E-01   0.00000000000000E+00  -8.44035656000031E-06
      1.16320721053663E+00  -8.80078364987848E-01   2.83120405192224E-01  -9.39170606879596E-08
      2.36250000000000E-07
      1.50000000000000E+01   1.50000000000002E+01   0.00000000000000E+00   6.85337616599775E-08  -1.66538641234467E-04
     -4.52468401478557E-23  -1.66470107472807E-04   4.35842104013399E-07   0.00000000000000E+00   3.03924413194260E-07
      0.00000000000000E+00  -5.57362543485860E-09  -2.99075622774741E-01  -4.84878490087991E-03  -3.03924413249247E-01
     -3.41955729726246E-07   6.24920929297818E-01   6.24920625206933E-01   0.00000000000000E+00  -7.43164305662156E-06
      1.06446769437543E+00  -7.60369379375674E-01   3.04090883356702E-01  -9.38863742871513E-08
      2.43000000000000E-07
      1.50000000000000E+01   1.50000000000002E+01   0.00000000000000E+00   6.37551395549211E-08  -1.51701352472534E-04
     -3.91224390098388E-23  -1.51637597332979E-04   4.35841080459617E-07   0.00000000000000E+00   3.23359391019941E-07
      0.00000000000000E+00  -6.24065325895928E-09  -3.18926221833975E-01  -4.43316294477957E-03  -3.23359391019407E-01
     -3.41982621515922E-07   6.03589173861140E-01   6.03588850350112E-01   0.00000000000000E+00  -6.34546225777496E-06
      9.80603211586801E-01  -6.57085837507803E-01   3.23511028616740E-01  -9.38584589436944E-08
      2.49750000000000E-07
      1.50000000000000E+01   1.50000000000000E+01   0.00000000000000E+00   7.39996504066558E-08  -1.20163138766702E-04
     -2.96088800984424E-23  -1.20089139116296E-04   4.35840269857928E-07   0.00000000000000E+00   3.38239130627337E-07
      0.00000000000000E+00  -4.13599627845255E-09  -3.34655657611999E-01  -3.58346886240383E-03  -3.38239130610399E-01
     -3.42004090082192E-07   5.82532217358895E-01   5.82531878999676E-01   0.00000000000000E+00  -5.18916761195687E-06
      9.12267378134347E-01  -5.73902969217204E-01   3.38359219749532E-01  -9.38361797757340E-08
      2.56500000000000E-07
      1.50000000000000E+01   1.50000000000000E+01   0.00000000000000E+00  -1.30005291225896E-07  -9.37598993682342E-05
     -1.98294046671226E-23  -9.38899046594601E-05   4.35839636101071E-07   0.00000000000000E+00   3.49810801071154E-07
      0.00000000000000E+00  -3.70660129188826E-09  -3.46955563554099E-01  -2.85523375645948E-03  -3.49810801017160E-01
     -3.42020898675536E-07   5.62742155053868E-01   5.62741805149176E-01   0.00000000000000E+00  -4.21169934172128E-06
      8.56924416996320E-01  -5.07015514375175E-01   3.49904690921804E-01  -9.38187374255317E-08
      2.63250000000000E-07
      1.50000000000000E+01   1.50000000000000E+01   0.00000000000000E+00  -6.57354738668955E-08  -7.97622344613660E-05
     -1.61604296658569E-23  -7.98279699352329E-05   4.35839097262275E-07   0.00000000000000E+00   3.59863860666444E-07
      0.00000000000000E+00  -2.94710958752713E-09  -3.57408794834025E-01  -2.45506285069215E-03  -3.59863860631827E-01
     -3.42035100505189E-07   5.44683949544313E-01   5.44683589600623E-01   0.00000000000000E+00  -3.46511208889359E-06
      8.11436181224080E-01  -4.51489027510223E-01   3.59943688601768E-01  -9.38039967570832E-08
      2.70000000000000E-07
      1.50000000000000E+01   1.50000000000000E+01   0.00000000000000E+00   9.94179746089411E-09  -7.48485513949271E-05
     -1.45204339585244E-23  -7.48386095974662E-05   4.35838592101659E-07   0.00000000000000E+00   3.69518494485317E-07
      0.00000000000000E+00  -3.02380260173494E-09  -3.67203234234176E-01  -2.31525720088439E-03  -3.69518494458863E-01
     -3.42048318631629E-07   5.28493890825560E-01   5.28493521232226E-01   0.00000000000000E+00  -2.90114373967314E-06
      7.73355120097269E-01  -4.03758885885089E-01   3.69593333068440E-01  -9.37902734700288E-08
      2.76750000000000E-07
      1.50000000000000E+01   1.50000000000000E+01   0.00000000000000E+00   2.41483261902662E-09  -7.47624342862346E-05
     -1.37004844018469E-23  -7.47600194536155E-05   4.35838087471527E-07   0.00000000000000E+00   3.79307036277834E-07
      0.00000000000000E+00  -2.92731084193072E-09  -3.76983692516261E-01  -2.32334081499301E-03  -3.79307036258565E-01
     -3.42061467777034E-07   5.14151426880725E-01   5.14151047498927E-01   0.00000000000000E+00  -2.46216825088199E-06
      7.41020972597403E-01  -3.61636714151126E-01   3.79381796278026E-01  -9.37766196944918E-08
      2.83500000000000E-07
      1.50000000000000E+01   1.50000000000000E+01   0.00000000000000E+00  -6.18007103804899E-08  -7.68271271928296E-05
     -1.43876187128830E-23  -7.68889279032101E-05   4.35837568471265E-07   0.00000000000000E+00   3.89442282676990E-07
      0.00000000000000E+00  -2.23037929154724E-09  -3.87040709617639E-01  -2.40157089869532E-03  -3.89442282746714E-01
     -3.42074973013218E-07   5.01572111675591E-01   5.01571722156420E-01   0.00000000000000E+00  -2.10689341798659E-06
      7.13329862858219E-01  -3.23808584290175E-01   3.89519171674626E-01  -9.37625954580459E-08
      2.90250000000000E-07
      1.50000000000000E+01   1.50000000000000E+01   0.00000000000000E+00  -1.15960159929583E-07  -7.97169211849457E-05
     -1.61452845283256E-23  -7.98328813448752E-05   4.35837029599315E-07   0.00000000000000E+00   3.99990314501692E-07
      0.00000000000000E+00  -3.05207755740700E-09  -3.97481866682321E-01  -2.50844473807123E-03  -3.99990314472469E-01
     -3.42088997116914E-07   4.90650306573891E-01   4.90649906503743E-01   0.00000000000000E+00  -1.80934054844123E-06
      6.89524669915829E-01  -2.89452713221457E-01   4.00070147353823E-01  -9.37480324823987E-08
      2.97000000000000E-07
      1.50000000000000E+01   1.50000000000000E+01   0.00000000000000E+00  -5.51977543790630E-08  -8.29014185366064E-05
     -1.64104411303916E-23  -8.29566162909854E-05   4.35836469642156E-07   0.00000000000000E+00   4.10955808394112E-07
      0.00000000000000E+00  -3.41485149595034E-09  -4.08331131675367E-01  -2.62467326627034E-03  -4.10955808356489E-01
     -3.42103579784622E-07   4.81277177102145E-01   4.81276766063381E-01   0.00000000000000E+00  -1.55347703757280E-06
      6.69060314551382E-01  -2.58019996101559E-01   4.11038764972786E-01  -9.37328898575309E-08
      3.03750000000000E-07
      1.50000000000000E+01   1.50000000000000E+01   0.00000000000000E+00  -3.33177483881728E-08  -8.59630016030990E-05
     -1.82251863157174E-23  -8.59963193514872E-05   4.35835889167001E-07   0.00000000000000E+00   4.22319963736545E-07
      0.00000000000000E+00  -3.57614303153521E-09  -4.19577694159500E-01  -2.74226599330852E-03  -4.22319963728952E-01
     -3.42118708378085E-07   4.73347708342562E-01   4.73347285936604E-01   0.00000000000000E+00  -1.32918603678421E-06
      6.51524757749216E-01  -2.29117468514885E-01   4.22405960048295E-01  -9.37171807889116E-08
      3.10500000000000E-07
      1.50000000000000E+01   1.50000000000000E+01   0.00000000000000E+00  -4.76443758259002E-08  -8.88075889902251E-05
     -1.83769856296104E-23  -8.88552333660510E-05   4.35835289394176E-07   0.00000000000000E+00   4.34056415119504E-07
      0.00000000000000E+00  -4.00839413176303E-09  -4.31197962967764E-01  -2.85844809399677E-03  -4.34056415070154E-01
     -3.42134350513798E-07   4.66763096195184E-01   4.66762662049915E-01   0.00000000000000E+00  -1.12984712409749E-06
      6.36593180492159E-01  -2.02446780341516E-01   4.34145270303519E-01  -9.37009388803749E-08
      3.17250000000000E-07
      1.50000000000000E+01   1.50000000000000E+01   0.00000000000000E+00  -6.72691255965667E-08  -9.14400157784856E-05
     -2.00489052369003E-23  -9.15072849040822E-05   4.35834671720002E-07   0.00000000000000E+00   4.46137591303947E-07
      0.00000000000000E+00  -4.03226698826268E-09  -4.43164884471601E-01  -2.97270278018821E-03  -4.46137591284057E-01
     -3.42150468106827E-07   4.61431273387502E-01   4.61430827158403E-01   0.00000000000000E+00  -9.50852155134340E-07
      6.24000787070194E-01  -1.77770737649063E-01   4.46229098568976E-01  -9.36842036131738E-08
      3.24000000000000E-07
      1.50000000000000E+01   1.50000000000000E+01   0.00000000000000E+00  -1.15157311500532E-07  -9.38393471061452E-05