DF-ISE text

Info {
  version   = 1.0
  type      = xyplot
  datasets  = [
    "time"
    "v(gate)" "v(sw)" "v(bus)" "vdiff(gate,0)" "vdiff(sw,bus)"
    "i(vdc,bus)" "i(vgsrc,gate)" "i(lload,bus)" "i(lload,sw)" "i(Q1,sw)"
    "i(Q1,gate)" "i(Q1,0)" "i(Q2,bus)" "i(Q2,sw)" "i(Q2,gate)" ]
  functions = [
    Time
    Voltage Voltage Voltage Voltage Voltage
    Current Current Current Current Current
    Current Current Current Current Current ]
}

Data {
      0.00000000000000E+00
      0.00000000000000E+00   5.00000000000000E+01   5.00000000000000E+01   0.00000000000000E+00   0.00000000000000E+00
      2.62124573999272E-07   0.00000000000000E+00  -2.62124573999272E-07   2.62124573999272E-07  -2.57124573992531E-07
      0.00000000000000E+00   2.57124573992531E-07   1.34584495214573E-14  -1.34584495214573E-14   0.00000000000000E+00
      6.75000000000000E-09
      0.00000000000000E+00   5.00000040189659E+01   5.00000000000000E+01   0.00000000000000E+00   4.01896591029072E-06
     -3.32297013374268E-05   0.00000000000000E+00  -2.61831528841539E-07   2.61831528841539E-07   3.32134436911194E-05
      0.00000000000000E+00  -3.28434238704823E-05   3.34870026921054E-05  -3.34870031879511E-05   0.00000000000000E+00
      1.35000000000000E-08
      0.00000000000000E+00   5.00000031058670E+01   5.00000000000000E+01   0.00000000000000E+00   3.10586704443949E-06
      2.10885000245371E-07   0.00000000000000E+00  -2.60740154366135E-07   2.60740154366135E-07  -2.01220565526207E-07
      0.00000000000000E+00   2.01078612897549E-07   5.11883562440053E-08  -5.12188603913118E-08   0.00000000000000E+00
      2.02500000000000E-08
      0.00000000000000E+00   5.00000030736625E+01   5.00000000000000E+01   0.00000000000000E+00   3.07366252627617E-06
      2.37080057039219E-07   0.00000000000000E+00  -2.59699773906599E-07   2.59699773906599E-07  -2.31992197962904E-07
      0.00000000000000E+00   2.32188530102292E-07   2.26466732882009E-08  -2.26464615802534E-08   0.00000000000000E+00
      2.70000000000000E-08
      0.00000000000000E+00   5.00000030455748E+01   5.00000000000000E+01   0.00000000000000E+00   3.04557483588042E-06
      2.38916003916926E-07   0.00000000000000E+00  -2.58669866711136E-07   2.58669866711136E-07  -2.33881436372212E-07
      0.00000000000000E+00   2.34071293002610E-07   1.97652009953643E-08  -1.97656561105449E-08   0.00000000000000E+00
      3.37500000000000E-08
      0.00000000000000E+00   5.00000030193628E+01   5.00000000000000E+01   0.00000000000000E+00   3.01936282198767E-06
      2.40395819455169E-07   0.00000000000000E+00  -2.57650189188355E-07   2.57650189188355E-07  -2.35247595866329E-07
      0.00000000000000E+00   2.35426235472017E-07   1.73037072260326E-08  -1.73033952511857E-08   0.00000000000000E+00
      4.05000000000000E-08
      0.00000000000000E+00   5.00000029947025E+01   5.00000000000000E+01   0.00000000000000E+00   2.99470248421585E-06
      2.41544788799980E-07   0.00000000000000E+00  -2.56639477099277E-07   2.56639477099277E-07  -2.36531250232851E-07
      0.00000000000000E+00   2.36698309379268E-07   1.50985204892691E-08  -1.50986476571628E-08   0.00000000000000E+00
      4.72500000000000E-08
      0.00000000000000E+00   5.00000029713552E+01   5.00000000000000E+01   0.00000000000000E+00   2.97135521520886E-06
      2.42715116397295E-07   0.00000000000000E+00  -2.55636644714685E-07   2.55636644714685E-07  -2.37702561859130E-07
      0.00000000000000E+00   2.37859457725529E-07   1.29254589588462E-08  -1.29254859301645E-08   0.00000000000000E+00
      5.40000000000000E-08
      0.00000000000000E+00   5.00000029492205E+01   5.00000000000000E+01   0.00000000000000E+00   2.94922045185331E-06
      2.43801795577246E-07   0.00000000000000E+00  -2.54641282814181E-07   2.54641282814181E-07  -2.38790001473459E-07
      0.00000000000000E+00   2.38937431958597E-07   1.08430208534206E-08  -1.08428996344382E-08   0.00000000000000E+00
      6.07500000000000E-08
      0.00000000000000E+00   5.00000029282019E+01   5.00000000000000E+01   0.00000000000000E+00   2.92820188008136E-06
      2.44810564415991E-07   0.00000000000000E+00  -2.53653014680662E-07   2.53653014680662E-07  -2.39798767259107E-07
      0.00000000000000E+00   2.39937418158183E-07   8.84585394835358E-09  -8.84590966788287E-09   0.00000000000000E+00
      6.75000000000000E-08
      0.00000000000000E+00   5.00000029082100E+01   5.00000000000000E+01   0.00000000000000E+00   2.90820999282460E-06
      2.45745813887264E-07   0.00000000000000E+00  -2.52671493808893E-07   2.52671493808893E-07  -2.40734262139492E-07
      0.00000000000000E+00   2.40864771325270E-07   6.92895382868481E-09  -6.92896535329692E-09   0.00000000000000E+00
      7.42500000000000E-08
      0.00000000000000E+00   5.00000028891609E+01   5.00000000000000E+01   0.00000000000000E+00   2.88916088209135E-06
      2.46613505156299E-07   0.00000000000000E+00  -2.51696402009401E-07   2.51696402009401E-07  -2.41601290919418E-07
      0.00000000000000E+00   2.41724255494664E-07   5.08570564992628E-09  -5.08567141549752E-09   0.00000000000000E+00
      8.10000000000000E-08
      0.00000000000000E+00   5.00000028709775E+01   5.00000000000000E+01   0.00000000000000E+00   2.87097745399478E-06
      2.47415913472755E-07   0.00000000000000E+00  -2.50727447119599E-07   2.50727447119599E-07  -2.42404847674084E-07
      0.00000000000000E+00   2.42520819741202E-07   3.31426687575590E-09  -3.31431350523728E-09   0.00000000000000E+00
      8.77500000000000E-08
      0.00000000000000E+00   5.00000028535867E+01   5.00000000000000E+01   0.00000000000000E+00   2.85358667895252E-06
      2.48159950698245E-07   0.00000000000000E+00  -2.49764361614730E-07   2.49764361614730E-07  -2.43148850509344E-07
      0.00000000000000E+00   2.43258352454001E-07   1.60715004279916E-09  -1.60707477613185E-09   0.00000000000000E+00
      9.45000000000000E-08
      0.00000000000000E+00   5.00000028369211E+01   5.00000000000000E+01   0.00000000000000E+00   2.83692109093181E-06
      2.48848420963232E-07   0.00000000000000E+00  -2.48806900748021E-07   2.48806900748021E-07  -2.43837512789517E-07
      0.00000000000000E+00   2.43941025510139E-07  -3.87865339154022E-11   3.87150475497341E-11   0.00000000000000E+00
      1.01250000000000E-07
      3.75000000000008E-01   5.00010348884401E+01   5.00000000000000E+01   3.75000000000008E-01   1.03488844008126E-03
     -8.07051512844035E-03   0.00000000000000E+00  -1.83980204732395E-07   1.83980204732395E-07   8.07052006297808E-03
      0.00000000000000E+00   5.83872805177618E+00   8.07069905026943E-03  -8.07069904950386E-03   0.00000000000000E+00
      1.08000000000000E-07
      2.40000000000001E+00   5.00027419199225E+01   5.00000000000000E+01   2.40000000000001E+00   2.74191992253492E-03
     -5.76809260278656E-03   0.00000000000000E+00   5.03589033945028E-07  -5.03589033945028E-07   5.76809766710517E-03
      0.00000000000000E+00   5.48601349418949E+00   5.76758903402104E-03  -5.76758903322440E-03   0.00000000000000E+00
      1.14750000000000E-07
      4.42500000000001E+00   5.00046019809917E+01   5.00000000000000E+01   4.42500000000001E+00   4.60198099170128E-03
     -5.98256184707419E-03   0.00000000000000E+00   1.85582608978369E-06  -1.85582608978369E-06   5.98256685361757E-03
      0.00000000000000E+00   5.21815919299409E+00   5.98070601694262E-03  -5.98070601678800E-03   0.00000000000000E+00
      1.21500000000000E-07
      6.45000000000001E+00   5.00056579300741E+01   5.00000000000000E+01   6.45000000000001E+00   5.65793007410065E-03
     -1.62800327551034E-03   0.00000000000000E+00   3.70438751712371E-06  -3.70438751712371E-06   1.62800825303949E-03
      0.00000000000000E+00   5.32329859134234E+00   1.62429886028655E-03  -1.62429885980491E-03   0.00000000000000E+00
      1.28250000000000E-07
      8.47500000000001E+00   4.86220385450836E+01   5.00000000000000E+01   8.47500000000001E+00  -1.37796145491637E+00
      7.74189499028176E+00   0.00000000000000E+00  -1.01475130758283E-04   1.01475130758283E-04  -7.74189498555040E+00
      0.00000000000000E+00   2.17500532983609E+01  -7.74179351540761E+00   7.74179351540969E+00   0.00000000000000E+00
