DF-ISE text

Info {
  version   = 1.0
  type      = xyplot
  datasets  = [
    "time"
    "Gate OuterVoltage" "Gate InnerVoltage" "Gate QuasiFermiPotential" "Gate DisplacementCurrent" "Gate eCurrent"
    "Gate hCurrent" "Gate TotalCurrent" "Gate Charge" "Emitter OuterVoltage" "Emitter InnerVoltage"
    "Emitter QuasiFermiPotential" "Emitter DisplacementCurrent" "Emitter eCurrent" "Emitter hCurrent" "Emitter TotalCurrent"
    "Emitter Charge" "Collector OuterVoltage" "Collector InnerVoltage" "Collector QuasiFermiPotential" "Collector DisplacementCurrent"
    "Collector eCurrent" "Collector hCurrent" "Collector TotalCurrent" "Collector Charge" ]
  functions = [
    Time
    OuterVoltage InnerVoltage QuasiFermiPotential DisplacementCurrent eCurrent
    hCurrent TotalCurrent Charge OuterVoltage InnerVoltage
    QuasiFermiPotential DisplacementCurrent eCurrent hCurrent TotalCurrent
    Charge OuterVoltage InnerVoltage QuasiFermiPotential DisplacementCurrent
    eCurrent hCurrent TotalCurrent Charge ]
}

Data {
      0.00000000000000E+00
      0.00000000000000E+00   0.00000000000000E+00   0.00000000000000E+00   0.00000000000000E+00  -9.20114047555865E-25
      9.20114047555865E-25   0.00000000000000E+00   1.59326300492182E-08   0.00000000000000E+00   2.55695748385754E-13
      0.00000000000000E+00   1.26573187010905E-21  -4.09476483862070E-12  -2.55685839185703E-07  -2.55689933950540E-07
     -2.42262548934345E-07   4.99999998696550E+01   4.99999998696548E+01   0.00000000000000E+00  -1.47668718179389E-21
      2.55688093264969E-07   1.84068557355147E-12   2.55689933950541E-07   2.26329918885127E-07
      6.75000000000000E-09
      0.00000000000000E+00   0.00000000000000E+00   0.00000000000000E+00  -6.50239358034959E-09   6.50248769268756E-09
      3.51910155196363E-25   9.41123379711429E-14   1.59326300493073E-08   0.00000000000000E+00   2.55695748385754E-13
      0.00000000000000E+00   6.25121354898612E-10  -4.49658358044306E-10  -2.55888505394677E-07  -2.55713042397822E-07
     -2.42262548924305E-07   4.99999998653180E+01   4.99999998653176E+01   0.00000000000000E+00  -7.81868914753263E-10
      2.55483527062907E-07   1.01129067428422E-09   2.55712948822438E-07   2.26329918874997E-07
      1.35000000000000E-08
      0.00000000000000E+00   0.00000000000000E+00   0.00000000000000E+00  -5.05472260515666E-09   5.05492329133463E-09
      4.03572645641481E-25   2.00686177974211E-13   1.59326300493074E-08   0.00000000000000E+00   2.55695748385754E-13
      0.00000000000000E+00  -1.03048788363111E-10   4.83640766188362E-11  -2.55631596460556E-07  -2.55686281172300E-07
     -2.42262548924333E-07   4.99999998653389E+01   4.99999998653386E+01   0.00000000000000E+00   1.34393635570023E-08
      2.55496984395636E-07  -1.32502634457685E-08   2.55686084506870E-07   2.26329918875027E-07
      2.02500000000000E-08
      0.00000000000000E+00   0.00000000000000E+00   0.00000000000000E+00  -4.60289943792569E-09   4.60290116408511E-09
      5.01415528103719E-25   1.72615942220584E-15   1.59326300493073E-08   0.00000000000000E+00   2.55695748385754E-13
      0.00000000000000E+00  -3.92281286971329E-11   2.00826559865439E-11  -2.55671053370450E-07  -2.55690198843161E-07
     -2.42262548924340E-07   4.99999998653521E+01   4.99999998653520E+01   0.00000000000000E+00   3.88806110362951E-11
      2.55510445382159E-07   1.40870968665364E-10   2.55690196961861E-07   2.26329918875033E-07
      2.70000000000000E-08
      0.00000000000000E+00   0.00000000000000E+00   0.00000000000000E+00  -6.54833512174484E-09   6.55106311690915E-09
      5.68127647862024E-25   2.72799516431702E-12   1.59326300493074E-08   0.00000000000000E+00   2.55695748385754E-13
      0.00000000000000E+00  -6.77485283940010E-10   5.43863655191535E-10  -2.55535813717970E-07  -2.55669435346719E-07
     -2.42262548924346E-07   4.99999998653631E+01   4.99999998653627E+01   0.00000000000000E+00  -8.05616792789484E-10
      2.55526471336039E-07   9.45862453633045E-10   2.55666716996882E-07   2.26329918875038E-07
      3.37500000000000E-08
      0.00000000000000E+00   0.00000000000000E+00   0.00000000000000E+00  -4.46603413345654E-09   4.46599915491744E-09
      6.07755072023654E-25  -3.49785390970557E-14   1.59326300493072E-08   0.00000000000000E+00   2.55695748385754E-13
      0.00000000000000E+00   4.38739239523279E-12  -9.47476904130185E-12  -2.55685921473430E-07  -2.55691008850076E-07
     -2.42262548924353E-07   4.99999998653760E+01   4.99999998653757E+01   0.00000000000000E+00  -9.87789474674851E-10
      2.55536698369949E-07   1.14213303601442E-09   2.55691041931289E-07   2.26329918875046E-07
      4.05000000000000E-08
      0.00000000000000E+00   0.00000000000000E+00   0.00000000000000E+00  -4.47485835387239E-09   4.47484775587314E-09
      6.41611099886330E-25  -1.05979992430809E-14   1.59326300493071E-08   0.00000000000000E+00   2.55695748385754E-13
      0.00000000000000E+00   3.86848536017569E-11  -3.37273160268920E-11  -2.55696116645315E-07  -2.55691159107740E-07
     -2.42262548924362E-07   4.99999998653875E+01   4.99999998653872E+01   0.00000000000000E+00  -9.97474606676945E-10
      2.55546512825710E-07   1.14213265753130E-09   2.55691170876564E-07   2.26329918875056E-07
      4.72500000000000E-08
      0.00000000000000E+00   0.00000000000000E+00   0.00000000000000E+00  -7.24525674175547E-09   7.24524651436171E-09
      6.77953306830707E-25  -1.02273937544314E-14   1.59326300493071E-08   0.00000000000000E+00   2.55695748385754E-13
      0.00000000000000E+00   2.72409814697721E-11  -4.62043614388967E-11  -2.55672202667411E-07  -2.55691166047380E-07
     -2.42262548924370E-07   4.99999998653985E+01   4.99999998653982E+01   0.00000000000000E+00  -1.40515175593823E-10
      2.55555125337817E-07   2.76566505477180E-10   2.55691176667701E-07   2.26329918875063E-07
      5.40000000000000E-08
      0.00000000000000E+00   0.00000000000000E+00   0.00000000000000E+00  -5.68795540005283E-09   5.68794314028110E-09
      7.39678271032809E-25  -1.22597717233803E-14   1.59326300493070E-08   0.00000000000000E+00   2.55695748385754E-13
      0.00000000000000E+00  -2.10172884880070E-11   1.22408608077808E-11  -2.55682397839295E-07  -2.55691174266975E-07
     -2.42262548924378E-07   4.99999998654090E+01   4.99999998654087E+01   0.00000000000000E+00   1.33767437217802E-08
      2.55564714740265E-07  -1.32502728321500E-08   2.55691185629896E-07   2.26329918875072E-07
      6.07500000000000E-08
      0.00000000000000E+00   0.00000000000000E+00   0.00000000000000E+00  -4.05717442118658E-09   4.05716305997782E-09
      7.96073969332128E-25  -1.13612087597494E-14   1.59326300493069E-08   0.00000000000000E+00   2.55695748385754E-13
      0.00000000000000E+00  -3.97256392381137E-11   4.45890507512541E-11  -2.55696061159601E-07  -2.55691197748088E-07
     -2.42262548924386E-07   4.99999998654190E+01   4.99999998654188E+01   0.00000000000000E+00  -9.61741726959464E-10
      2.55576247082992E-07   1.07670405839698E-09   2.55691209414429E-07   2.26329918875079E-07
      6.75000000000000E-08
      0.00000000000000E+00   0.00000000000000E+00   0.00000000000000E+00  -4.21856160859056E-09   4.21855069520315E-09
      8.28212343457346E-25  -1.09133874125772E-14   1.59326300493068E-08   0.00000000000000E+00   2.55695748385754E-13
      0.00000000000000E+00   1.87252383928012E-11  -1.38898864848782E-11  -2.55696061159600E-07  -2.55691225807692E-07
     -2.42262548924395E-07   4.99999998654287E+01   4.99999998654283E+01   0.00000000000000E+00  -5.46890188385198E-10
      2.55582556088234E-07   6.55571426919171E-10   2.55691237326768E-07   2.26329918875087E-07
      7.42500000000000E-08
      0.00000000000000E+00   0.00000000000000E+00   0.00000000000000E+00  -4.01919256682995E-09   4.01918080623970E-09
      8.59402912791690E-25  -1.17605902524612E-14   1.59326300493067E-08   0.00000000000000E+00   2.55695748385754E-13
      0.00000000000000E+00   4.90786351092015E-11  -4.73745559203555E-11  -2.55692949989584E-07  -2.55691245910395E-07
     -2.42262548924404E-07   4.99999998654380E+01   4.99999998654378E+01   0.00000000000000E+00  -1.10662393432385E-09
      2.55590330603073E-07   1.20755005356515E-09   2.55691256722315E-07   2.26329918875098E-07
      8.10000000000000E-08
      0.00000000000000E+00   0.00000000000000E+00   0.00000000000000E+00  -4.58752758844909E-09   4.58751626505757E-09
      9.18694685161650E-25  -1.13233915234460E-14   1.59326300493066E-08   0.00000000000000E+00   2.55695748385754E-13
      0.00000000000000E+00   1.80172200516099E-11  -1.32265084978179E-11  -2.55696061159600E-07  -2.55691270448047E-07
     -2.42262548924413E-07   4.99999998654469E+01   4.99999998654468E+01   0.00000000000000E+00   1.31452229643715E-08
      2.55595433859940E-07  -1.30493738777942E-08   2.55691282946517E-07   2.26329918875107E-07
      8.77500000000000E-08
      0.00000000000000E+00   0.00000000000000E+00   0.00000000000000E+00  -7.29490624406135E-09   7.29489421876179E-09
      9.85343620102750E-25  -1.20252995533785E-14   1.59326300493065E-08   0.00000000000000E+00   2.55695748385754E-13
      0.00000000000000E+00   5.28075863698387E-11  -5.11549615430771E-11  -2.55692949989584E-07  -2.55691297364757E-07
     -2.42262548924422E-07   4.99999998654556E+01   4.99999998654554E+01   0.00000000000000E+00  -6.32912414134918E-10
      2.55603227853213E-07   7.20992910570737E-10   2.55691308349649E-07   2.26329918875115E-07
      9.45000000000000E-08
      0.00000000000000E+00   0.00000000000000E+00   0.00000000000000E+00  -4.45749411260253E-09   4.45748137041379E-09
      1.03697700703266E-24  -1.27421887382191E-14   1.59326300493065E-08   0.00000000000000E+00   2.55695748385754E-13
      0.00000000000000E+00   1.70330811772441E-13  -9.15928011150076E-12  -2.55682342353582E-07  -2.55691331302882E-07
     -2.42262548924431E-07   4.99999998654640E+01   4.99999998654636E+01   0.00000000000000E+00  -5.72565881544002E-10
      2.55608340726155E-07   6.55568777537304E-10   2.55691343622148E-07   2.26329918875124E-07
      1.01250000000000E-07
      3.75000000000008E-01   3.74999994153245E-01   0.00000000000000E+00   5.10042991821802E-08   5.84676089495313E+00
      1.95846140036251E-18   5.84676094595743E+00   2.32343831674648E-08   0.00000000000000E+00   5.83841167513520E-06
      0.00000000000000E+00  -1.01175420298912E-01  -1.00482958883252E+00  -4.73240666597696E+00  -5.83841167510839E+00
     -2.49550715455828E-07   5.00003572117255E+01   5.00003572200748E+01   0.00000000000000E+00   2.45729819108009E-08
     -1.48301664249395E-04  -8.20099375780133E-03  -8.34927084906881E-03   2.26316332288361E-07
      1.08000000000000E-07
      2.40000000000001E+00   2.39999999450821E+00   0.00000000000000E+00  -5.59238166329888E-08   5.49178463961228E+00
      1.83992578447652E-18   5.49178458368846E+00   6.13587126823682E-08   0.00000000000000E+00   5.48569633081514E-06
      0.00000000000000E+00  -1.01174703730115E-01  -1.03131388571156E+00  -4.35320774130769E+00  -5.48569633074936E+00
     -2.87633766846109E-07   5.00012514249088E+01   5.00012514309970E+01   0.00000000000000E+00  -3.81272785226393E-08
     -5.75998063092021E-04  -5.51221674877108E-03  -6.08825293914162E-03   2.26275054163740E-07
      1.14750000000000E-07
      4.42500000000001E+00   4.42499999477590E+00   0.00000000000000E+00  -3.63252691921019E-08   5.22414508080190E+00
      1.75042209730821E-18   5.22414504447663E+00   9.72930052304251E-08   0.00000000000000E+00   5.21783423035410E-06
      0.00000000000000E+00  -1.01174782560410E-01  -1.04278023449099E+00  -4.07387921326633E+00  -5.21783423031774E+00
     -3.23525719541892E-07   5.00021754128924E+01   5.00021754192032E+01   0.00000000000000E+00  -3.02606623180503E-08
     -9.83840471631690E-04  -5.32694342662866E-03  -6.31081415892266E-03   2.26232714311463E-07
      1.21500000000000E-07
      6.45000000000001E+00   6.44999999467346E+00   0.00000000000000E+00   1.05189015945286E-07   5.32654041044340E+00
      1.78470609163515E-18   5.32654051563242E+00   1.32478133315771E-07   0.00000000000000E+00   5.32630018349725E-06
      0.00000000000000E+00  -1.01174841967929E-01  -1.71731471550871E+00  -3.50781062598850E+00  -5.32630018346513E+00
     -3.58177234454261E-07   5.00026392509311E+01   5.00026392511715E+01   0.00000000000000E+00   2.13178149209804E-08
     -1.15975075566898E-03   9.19397270559050E-04  -2.40332167295011E-04   2.25699101138490E-07
      1.28250000000000E-07
      8.47500000000001E+00   8.47499998618069E+00   0.00000000000000E+00   1.00750524243017E-06   1.38192876080651E+01
      4.62625415260151E-18   1.38192886155703E+01   1.99008696923689E-07   0.00000000000000E+00   2.33260831267695E-05
      0.00000000000000E+00  -1.01183319777363E-01  -2.43913282961935E+01   1.16642856489828E+00  -2.33260830510725E+01
     -3.97186458605767E-07   4.95194197463434E+01   4.95194102395487E+01   0.00000000000000E+00   7.62705145466658E-05
      2.06210576068145E-01   9.30050758891972E+00   9.50679443550241E+00   1.98177761682078E-07
      1.35000000000000E-07
      1.05000000000000E+01   1.04999999869956E+01   0.00000000000000E+00  -6.05524644201305E-07   1.30044426141772E+01
      4.35415445805067E-18   1.30044420086525E+01   2.89563381181194E-07   0.00000000000000E+00   6.91279624767990E-05
      0.00000000000000E+00  -1.01187007222760E-01  -7.60628024589752E+01   7.03602698933730E+00  -6.91279624768606E+01
     -4.19637957677995E-07   4.38203821310907E+01   4.38203260075703E+01   0.00000000000000E+00   1.23057467534092E-04
      1.66798725089082E+00   5.44554101598485E+01   5.61235204682069E+01   1.30074576496803E-07
      1.41750000000000E-07
      1.25250000000000E+01   1.25249999907833E+01   0.00000000000000E+00  -9.71026114388928E-08   9.21671486307853E+00
      3.08679380058328E-18   9.21671476597592E+00   3.58495830131578E-07   0.00000000000000E+00   7.18569096142170E-05
      0.00000000000000E+00  -1.01171884846140E-01  -7.82060011120311E+01   6.45026338229384E+00  -7.18569096145834E+01
     -4.26329029821180E-07   3.09314369472113E+01   3.09313743070163E+01   0.00000000000000E+00   4.38426933911150E-05
      2.62374071963262E+00   6.00164102862819E+01   6.26401948486079E+01   6.78331996896012E-08
      1.48500000000000E-07
      1.45500000000000E+01   1.45499999911001E+01   0.00000000000000E+00   1.85364233218908E-08   8.89997235433166E+00
      2.98091294404630E-18   8.89997237286808E+00   4.19371361273755E-07   0.00000000000000E+00   5.83549717292264E-05
      0.00000000000000E+00  -1.01170031629833E-01  -6.41938379847057E+01   5.94003628712493E+00  -5.83549717292106E+01
     -4.33262944430160E-07   1.91417115974301E+01   1.91416621424307E+01   0.00000000000000E+00   7.53746063130991E-06
      3.19582489113989E+00   4.62591669277419E+01   4.94549993563425E+01   1.38915831564048E-08
      1.55250000000000E-07
      1.50000000000000E+01   1.49999999998681E+01   0.00000000000000E+00   1.23607095807383E-07   1.31915946120520E-01
      4.41953498849725E-20   1.31916069727616E-01   4.33716203999240E-07   0.00000000000000E+00   3.43765249053768E-05
      0.00000000000000E+00   3.85109784699987E-06  -3.98441117444261E+01   5.46758298795690E+00  -3.43765249053713E+01
     -4.07169006321582E-07   1.03647737645435E+01   1.03647395199346E+01   0.00000000000000E+00  -1.20243139987049E-05
      3.37002365408695E+00   3.08745972058708E+01   3.42446088356438E+01  -2.65471976776569E-08
      1.62000000000000E-07
      1.50000000000000E+01   1.49999999998771E+01   0.00000000000000E+00  -9.43094758503216E-08   1.22827824782994E-01
      4.11536165035042E-20   1.22827730473518E-01   4.34568491836791E-07   0.00000000000000E+00   1.99263408200553E-05
      0.00000000000000E+00   3.32881403700304E-06  -2.44327648378918E+01   4.50642068895741E+00  -1.99263408201204E+01
     -3.74957541668655E-07   4.79563950451705E+00   4.79561970100395E+00   0.00000000000000E+00  -2.36482763162279E-05
      3.27487384883086E+00   1.65286628890924E+01   1.98035130896469E+01  -5.96109501681331E-08
      1.68750000000000E-07
      1.50000000000000E+01   1.49999999999087E+01   0.00000000000000E+00  -1.48212115277817E-07   9.13600828514564E-02
      3.06252042488825E-20   9.13599346393411E-02   4.35312585930915E-07   0.00000000000000E+00   8.25734464719222E-06
      0.00000000000000E+00   2.36398592783107E-06  -1.05120955113374E+01   2.25474849487325E+00  -8.25734465247820E+00
     -3.54382663533643E-07   2.02887363963142E+00   2.02886547364671E+00   0.00000000000000E+00  -2.78344548998487E-05
      3.01825480883517E+00   5.14775774345859E+00   8.16598471783887E+00  -8.09299223972729E-08
      1.75500000000000E-07
      1.50000000000000E+01   1.49999999999654E+01   0.00000000000000E+00   5.99487059589700E-08   3.46464699084982E-02
      1.16449554307599E-20   3.46465298572041E-02   4.35707141130211E-07   0.00000000000000E+00   2.02019873894779E-06
      0.00000000000000E+00   8.41614487331408E-07  -2.93227580309311E+00   9.12076222506101E-01  -2.02019873897252E+00
     -3.45691623345088E-07   1.03861100056473E+00   1.03860901501252E+00   0.00000000000000E+00  -2.56210752472610E-05
      2.68316459867137E+00  -6.97586768480591E-01   1.98555220911554E+00  -9.00155177851226E-08
      1.82250000000000E-07
      1.50000000000000E+01   1.49999999999925E+01   0.00000000000000E+00  -6.30720761454596E-08   7.39939544240559E-03
      2.52680712468430E-21   7.39933237032944E-03   4.35819774901608E-07   0.00000000000000E+00   5.03810132710719E-07
      0.00000000000000E+00   1.05270870115652E-07  -7.37606388157382E-01   2.33796150171086E-01  -5.03810132715426E-01
     -3.42671353098424E-07   7.91499254993048E-01   7.91498758582248E-01   0.00000000000000E+00  -2.11645499235386E-05
      2.34767772092557E+00  -1.85124575603072E+00   4.96410800344930E-01  -9.31484218031831E-08
      1.89000000000000E-07
      1.50000000000000E+01   1.49999999999987E+01   0.00000000000000E+00  -1.55643860637184E-07   1.35240667878911E-03
      5.01821917540167E-22   1.35225103492847E-03   4.35843284833942E-07   0.00000000000000E+00   2.31521733663982E-07
      0.00000000000000E+00   1.29843269629184E-08  -2.77403156388475E-01   4.58814098012997E-02  -2.31521733602848E-01
     -3.41959232841368E-07   7.32307916055174E-01   7.32307685885692E-01   0.00000000000000E+00  -1.79713612485876E-05
      2.05625123952896E+00  -1.82606378559868E+00   2.30169482569031E-01  -9.38840519925739E-08
      1.95750000000000E-07
      1.50000000000000E+01   1.49999999999998E+01   0.00000000000000E+00  -1.04519932000666E-07   1.84450071630440E-04
      1.12304333715256E-22   1.84345551698440E-04   4.35847161787497E-07   0.00000000000000E+00   1.94161940890373E-07
      0.00000000000000E+00  -1.76385994266895E-09  -2.01303801210653E-01   7.14186210268057E-03  -1.94161940871832E-01
     -3.41832761352871E-07   7.11575931977870E-01   7.11575738000272E-01   0.00000000000000E+00  -1.48589605192285E-05
      1.81851621581727E+00  -1.62452376153654E+00   1.93977595320213E-01  -9.40144004346254E-08
      2.02500000000000E-07
      1.50000000000000E+01   1.50000000000000E+01   0.00000000000000E+00  -4.66225451083340E-08  -8.35677549972679E-05
      2.20213879735345E-23  -8.36143775423763E-05   4.35847191451839E-07   0.00000000000000E+00   2.02398568197894E-07
      0.00000000000000E+00  -6.33462856181035E-09  -2.00515136309812E-01  -1.88342559095040E-03  -2.02398568235391E-01
     -3.41825308916704E-07   6.97492345494627E-01   6.97492143012444E-01   0.00000000000000E+00  -1.24558808610980E-05
      1.62604168669255E+00  -1.42354704819967E+00   2.02482182612015E-01  -9.40218825351350E-08
      2.09250000000000E-07
      1.50000000000000E+01   1.50000000000002E+01   0.00000000000000E+00  -1.13725919570071E-07  -1.53347743757283E-04
     -4.26725308561867E-25  -1.53461469676853E-04   4.35846416699419E-07   0.00000000000000E+00   2.19549843624186E-07
      0.00000000000000E+00  -7.94381120543725E-09  -2.15496929372592E-01  -4.05290631458414E-03  -2.19549843630987E-01
     -3.41843969669313E-07   6.83604088880599E-01   6.83603869177296E-01   0.00000000000000E+00  -1.08783829780383E-05
      1.46777476313192E+00  -1.24806057964831E+00   2.19703305100628E-01  -9.40024470301042E-08
      2.16000000000000E-07
      1.50000000000000E+01   1.50000000000002E+01   0.00000000000000E+00   7.61304016656315E-09  -2.07626851948140E-04
     -1.94825496263701E-23  -2.07619238907973E-04   4.35845409364133E-07   0.00000000000000E+00   2.40415509331464E-07
      0.00000000000000E+00  -1.64016725743515E-08  -2.35034943842515E-01  -5.38054912312998E-03  -2.40415509367318E-01
     -3.41869596525757E-07   6.68468186808357E-01   6.68467946185227E-01   0.00000000000000E+00  -1.01282545933369E-05
      1.33228196107617E+00  -1.09164870421548E+00   2.40623128606097E-01  -9.39758128383764E-08
      2.22750000000000E-07
      1.50000000000000E+01   1.50000000000003E+01   0.00000000000000E+00   1.36541063933132E-07  -2.28879719578757E-04
     -2.63631551412771E-23  -2.28743178514824E-04   4.35844196891423E-07   0.00000000000000E+00   2.64687422185230E-07
      0.00000000000000E+00  -1.14119502327017E-08  -2.58490764068812E-01  -6.19664673671462E-03  -2.64687422217476E-01
     -3.41900634925753E-07   6.51091515932532E-01   6.51091251016367E-01   0.00000000000000E+00  -9.23215134002459E-06
      1.21017128709923E+00  -9.45245889551880E-01   2.64916165396012E-01  -9.39435619656711E-08
      2.29500000000000E-07
      1.50000000000000E+01   1.50000000000002E+01   0.00000000000000E+00  -7.12707278055658E-08  -1.74331841611713E-04
     -7.41766808442273E-24  -1.74403112339519E-04   4.35842916388676E-07   0.00000000000000E+00   2.88351793491114E-07
      0.00000000000000E+00  -5.95183268416961E-09  -2.83321716172871E-01  -5.03007133776387E-03  -2.88351793462468E-01
     -3.41934167950072E-07   6.30507160697480E-01   6.30506872171282E-01   0.00000000000000E+00  -8.05643183466511E-06
      1.09903895406227E+00  -8.10504701055629E-01   2.88526196574811E-01  -9.39087484386050E-08
      2.36250000000000E-07
      1.50000000000000E+01   1.50000000000002E+01   0.00000000000000E+00  -8.88651477419004E-08  -1.44775011375850E-04
      2.42382926380745E-24  -1.44863876523592E-04   4.35841938557510E-07   0.00000000000000E+00   3.06486345631998E-07
      0.00000000000000E+00  -4.85640351592929E-09  -3.02297400954664E-01  -4.18893981242760E-03  -3.06486345623495E-01
     -3.41960011865553E-07   6.08850188295087E-01   6.08849881663879E-01   0.00000000000000E+00  -6.84984195147232E-06
      1.00846780745470E+00  -7.01829748112739E-01   3.06631209500010E-01  -9.38819266919571E-08
      2.43000000000000E-07
      1.50000000000000E+01   1.50000000000000E+01   0.00000000000000E+00   1.54013697586123E-08  -1.24897915441433E-04
      8.25988117223734E-24  -1.24882514071674E-04   4.35841095600541E-07   0.00000000000000E+00   3.22271814044106E-07
      0.00000000000000E+00  -4.12002782310877E-09  -3.18650041236590E-01  -3.62176868788734E-03  -3.22271814044506E-01
     -3.41982248301346E-07   5.87177275723516E-01   5.87176953326819E-01   0.00000000000000E+00  -5.66041274986635E-06
      9.33889124689247E-01  -6.11486767717918E-01   3.22396696558579E-01  -9.38588472991957E-08
      2.49750000000000E-07
      1.50000000000000E+01   1.50000000000000E+01   0.00000000000000E+00   7.64349262208274E-08  -9.91566287826005E-05
      1.76171646444936E-23  -9.90801938563796E-05   4.35840426809232E-07   0.00000000000000E+00   3.34539845315522E-07
      0.00000000000000E+00  -3.74244021779643E-09  -3.31628330132274E-01  -2.91151145420218E-03  -3.34539845328917E-01
     -3.41999963215565E-07   5.66549362462366E-01   5.66549027823440E-01   0.00000000000000E+00  -4.58977156847591E-06
      8.73560594091470E-01  -5.38917078797122E-01   3.34638925522779E-01  -9.38404635936655E-08
      2.56500000000000E-07
      1.50000000000000E+01   1.50000000000000E+01   0.00000000000000E+00  -9.46154936003812E-08  -8.22774478767907E-05
      2.34372516028143E-23  -8.23720633703911E-05   4.35839870797803E-07   0.00000000000000E+00   3.44854158000556E-07
      0.00000000000000E+00  -2.75811700661542E-09  -3.42416053538702E-01  -2.43810171864344E-03  -3.44854158015463E-01
     -3.42014643346903E-07   5.47561800122962E-01   5.47561455186431E-01   0.00000000000000E+00  -3.75623697250397E-06
      8.24248478169330E-01  -4.79308191853542E-01   3.44936530078815E-01  -9.38252274509015E-08
      2.63250000000000E-07
      1.50000000000000E+01   1.50000000000000E+01   0.00000000000000E+00   4.76661484452586E-08  -7.53419536145006E-05
      2.47607134338144E-23  -7.52942874660553E-05   4.35839362561363E-07   0.00000000000000E+00   3.54505555302735E-07
      0.00000000000000E+00  -3.22580239775469E-09  -3.52271753124253E-01  -2.23379896589341E-03  -3.54505555315949E-01
     -3.42027970576739E-07   5.30429827867731E-01   5.30429473286883E-01   0.00000000000000E+00  -3.12967233319417E-06
      7.83173961481668E-01  -4.28589982205899E-01   3.54580849603436E-01  -9.38113919846253E-08
      2.70000000000000E-07
      1.50000000000000E+01   1.50000000000000E+01   0.00000000000000E+00  -9.78496463461431E-08  -7.39938936886822E-05
      2.59958632793092E-23  -7.40917433350284E-05   4.35838862442096E-07   0.00000000000000E+00   3.64168416113944E-07
      0.00000000000000E+00  -3.05812850133308E-09  -3.61965910841970E-01  -2.20250223169238E-03  -3.64168416131791E-01
     -3.42041020268679E-07   5.15170229631566E-01   5.15169865389059E-01   0.00000000000000E+00  -2.64845686061243E-06
      7.48403374694984E-01  -3.84158218363003E-01   3.64242507875120E-01  -9.37978421734179E-08
      2.76750000000000E-07
      1.50000000000000E+01   1.50000000000000E+01   0.00000000000000E+00   8.82374167078098E-08  -7.58108591805386E-05
      2.46082955637912E-23  -7.57226217638308E-05   4.35838351314398E-07   0.00000000000000E+00   3.74129974838722E-07
      0.00000000000000E+00  -2.49818754755434E-09  -3.71871082136241E-01  -2.25889019244775E-03  -3.74129974826876E-01
     -3.42054330534293E-07   5.01713805083838E-01   5.01713430878141E-01   0.00000000000000E+00  -2.26425343500141E-06
      7.18655483829399E-01  -3.44447522127332E-01   3.74205697448632E-01  -9.37840207801074E-08
      2.83500000000000E-07
      1.50000000000000E+01   1.50000000000000E+01   0.00000000000000E+00   7.55312658626454E-08  -7.85746077154230E-05
      2.44704065004378E-23  -7.84990764495604E-05   4.35837821445633E-07   0.00000000000000E+00   3.84491603636248E-07
      0.00000000000000E+00  -2.81825714800707E-09  -3.82138270066973E-01  -2.35333072229705E-03  -3.84491603607527E-01
     -3.42068126330310E-07   4.89960205531993E-01   4.89959820961889E-01   0.00000000000000E+00  -1.94595151225601E-06
      6.93064699508828E-01  -3.08492650873331E-01   3.84570102683985E-01  -9.37696951153224E-08
      2.90250000000000E-07
      1.50000000000000E+01   1.50000000000000E+01   0.00000000000000E+00   9.63388247583720E-08  -8.16958313842836E-05
      2.34312768920908E-23  -8.15994925595252E-05   4.35837270649058E-07   0.00000000000000E+00   3.95271518348785E-07
      0.00000000000000E+00  -2.58500583779414E-09  -3.92810427603272E-01  -2.46108814748461E-03  -3.95271518335763E-01
     -3.42082475493504E-07   4.79801224390404E-01   4.79800829037285E-01   0.00000000000000E+00  -1.67445893648146E-06
      6.71018701890958E-01  -2.75663909603711E-01   3.95353117828311E-01  -9.37547951555544E-08
      2.97000000000000E-07
      1.50000000000000E+01   1.50000000000000E+01   0.00000000000000E+00   1.47976242199397E-07  -8.48361615357674E-05
      2.15995073495792E-23  -8.46881852935680E-05   4.35836699003808E-07   0.00000000000000E+00   4.06458160040623E-07
      0.00000000000000E+00  -2.75474090075916E-09  -4.03886257554910E-01  -2.57189979707839E-03  -4.06458160106730E-01
     -3.42097379412796E-07   4.71130959057930E-01   4.71130552515081E-01   0.00000000000000E+00  -1.43786934136946E-06
      6.52062194497229E-01  -2.45517908335851E-01   4.06542848292037E-01  -9.37393195910116E-08
      3.03750000000000E-07
      1.50000000000000E+01   1.50000000000000E+01   0.00000000000000E+00   1.44260903640484E-07  -8.77569014297957E-05
      2.06269238100391E-23  -8.76126405261552E-05   4.35836107618484E-07   0.00000000000000E+00   4.18025699491849E-07
      0.00000000000000E+00  -3.07085738817291E-09  -4.15344370148071E-01  -2.68132631707784E-03  -4.18025699536006E-01
     -3.42112809377026E-07   4.63848639497696E-01   4.63848221384383E-01   0.00000000000000E+00  -1.22847467698391E-06
      6.35840896921175E-01  -2.17726356269963E-01   4.18113312176536E-01  -9.37232982414566E-08
      3.10500000000000E-07
      1.50000000000000E+01   1.50000000000000E+01   0.00000000000000E+00   2.97868773429951E-08  -9.03766282769564E-05
      2.05408165332964E-23  -9.03468413996134E-05   4.35835497777305E-07   0.00000000000000E+00   4.29948627194084E-07
      0.00000000000000E+00  -3.74394273697931E-09  -4.27159887698268E-01  -2.78873571102707E-03  -4.29948627153238E-01
     -3.42128730358939E-07   4.57860374041789E-01   4.57859944002816E-01   0.00000000000000E+00  -1.04097674596985E-06
      6.22069132265912E-01  -1.92029117294535E-01   4.30038973994631E-01  -9.37067674183635E-08
      3.17250000000000E-07
      1.50000000000000E+01   1.50000000000000E+01   0.00000000000000E+00   4.94152753218299E-08  -9.29173934767004E-05
      1.89085373736482E-23  -9.28679782013786E-05   4.35834870918452E-07   0.00000000000000E+00   4.42198781897694E-07
      0.00000000000000E+00  -4.22573577124356E-09  -4.39304936535625E-01  -2.89384107448372E-03  -4.42198781835844E-01
     -3.42145103006775E-07   4.53078397959374E-01   4.53077955667725E-01   0.00000000000000E+00  -8.71717385333993E-07
      6.10509672401492E-01  -1.68217150870067E-01   4.42291649814040E-01  -9.36897679116764E-08
      3.24000000000000E-07
      1.50000000000000E+01   1.50000000000000E+01   0.00000000000000E+00  -4.68698053500044E-09  -9.51973558519106E-05