DF-ISE text

Info {
  version   = 1.0
  type      = xyplot
  datasets  = [
    "time"
    "Gate OuterVoltage" "Gate InnerVoltage" "Gate QuasiFermiPotential" "Gate DisplacementCurrent" "Gate eCurrent"
    "Gate hCurrent" "Gate TotalCurrent" "Gate Charge" "Emitter OuterVoltage" "Emitter InnerVoltage"
    "Emitter QuasiFermiPotential" "Emitter DisplacementCurrent" "Emitter eCurrent" "Emitter hCurrent" "Emitter TotalCurrent"
    "Emitter Charge" "Collector OuterVoltage" "Collector InnerVoltage" "Collector QuasiFermiPotential" "Collector DisplacementCurrent"
    "Collector eCurrent" "Collector hCurrent" "Collector TotalCurrent" "Collector Charge" ]
  functions = [
    Time
    OuterVoltage InnerVoltage QuasiFermiPotential DisplacementCurrent eCurrent
    hCurrent TotalCurrent Charge OuterVoltage InnerVoltage
    QuasiFermiPotential DisplacementCurrent eCurrent hCurrent TotalCurrent
    Charge OuterVoltage InnerVoltage QuasiFermiPotential DisplacementCurrent
    eCurrent hCurrent TotalCurrent Charge ]
}

Data {
      0.00000000000000E+00
      0.00000000000000E+00   0.00000000000000E+00   0.00000000000000E+00   0.00000000000000E+00  -8.97573432695765E-26
      8.97573432695765E-26   0.00000000000000E+00   1.71990951046028E-08   0.00000000000000E+00   8.33950213844343E-14
      0.00000000000000E+00   0.00000000000000E+00  -4.01885214404307E-12  -8.33833064222427E-08  -8.33873252743868E-08
     -8.17106042584929E-08   5.00000000000000E+00   4.99999999999991E+00   0.00000000000000E+00   0.00000000000000E+00
      8.33857145156423E-08   1.61075874445003E-12   8.33873252743867E-08   6.45115091538906E-08
      2.50000000000000E-02
      3.75000000000000E-01   3.75000000000000E-01   0.00000000000000E+00   0.00000000000000E+00  -6.33936158847571E-26
      6.33936158847571E-26   0.00000000000000E+00   2.46621229207863E-08   0.00000000000000E+00   8.33950213844343E-14
      0.00000000000000E+00   0.00000000000000E+00  -4.02589286636143E-12  -8.34192023830268E-08  -8.34232282758931E-08
     -8.91548929484510E-08   5.00000000000000E+00   4.99999999999991E+00   0.00000000000000E+00   0.00000000000000E+00
      8.34216175125766E-08   1.61076331612893E-12   8.34232282758927E-08   6.44927700276651E-08
      5.00000000000000E-02
      7.50000000000000E-01   7.50000000000000E-01   0.00000000000000E+00   0.00000000000000E+00  -5.17849830703252E-26
      5.17849830703252E-26   0.00000000000000E+00   3.23018317302697E-08   0.00000000000000E+00   8.34868661216418E-14
      0.00000000000000E+00   0.00000000000000E+00  -4.04450909439658E-12  -8.34556804625425E-08  -8.34597249716369E-08
     -9.67755319349180E-08   5.00000000000000E+00   4.99999999999991E+00   0.00000000000000E+00   0.00000000000000E+00
      8.34581142086942E-08   1.61076294250820E-12   8.34597249716367E-08   6.44737002046488E-08
      7.50000000000000E-02
      1.12500000000000E+00   1.12500000000000E+00   0.00000000000000E+00   0.00000000000000E+00  -6.07161188893615E-26
      6.07161188893615E-26   0.00000000000000E+00   3.99358586445399E-08   0.00000000000000E+00   8.34868661216418E-14
      0.00000000000000E+00   0.00000000000000E+00  -4.09531707140773E-12  -8.34990566945536E-08  -8.35031520116250E-08
     -1.04390155040005E-07   5.00000000000000E+00   4.99999999999991E+00   0.00000000000000E+00   0.00000000000000E+00
      8.35015413383174E-08   1.61067330708190E-12   8.35031520116245E-08   6.44542963954655E-08
      1.00000000000000E-01
      1.50000000000000E+00   1.50000000000000E+00   0.00000000000000E+00   0.00000000000000E+00  -9.13316520855079E-26
      9.13316520855079E-26   0.00000000000000E+00   4.75278395062489E-08   0.00000000000000E+00   8.35787108588493E-14
      0.00000000000000E+00   0.00000000000000E+00  -4.25028153383757E-12  -8.35475087334888E-08  -8.35517590150226E-08
     -1.11962391754079E-07   5.00000000000000E+00   4.99999999999991E+00   0.00000000000000E+00   0.00000000000000E+00
      8.35501482496046E-08   1.61076541729210E-12   8.35517590150219E-08   6.44345522478308E-08
      1.25000000000000E-01
      1.87500000000000E+00   1.87500000000000E+00   0.00000000000000E+00   0.00000000000000E+00  -8.24588202919526E-26
      8.24588202919526E-26   0.00000000000000E+00   5.50644804243561E-08   0.00000000000000E+00   8.35787108588493E-14
      0.00000000000000E+00   0.00000000000000E+00  -4.79757135462475E-12  -8.36003214839638E-08  -8.36051190553185E-08
     -1.19478939232202E-07   5.00000000000000E+00   4.99999999999991E+00   0.00000000000000E+00   0.00000000000000E+00
      8.36035082873789E-08   1.61076793937253E-12   8.36051190553183E-08   6.44144588078469E-08
      1.50000000000000E-01
      2.25000000000000E+00   2.25000000000000E+00   0.00000000000000E+00   0.00000000000000E+00  -6.71758880787653E-26
      6.71758880787653E-26   0.00000000000000E+00   6.25390009517981E-08   0.00000000000000E+00   8.36705555960569E-14
      0.00000000000000E+00   0.00000000000000E+00  -7.17962754249059E-12  -8.36519063620035E-08  -8.36590859895460E-08
     -1.26933020481116E-07   5.00000000000000E+00   4.99999999999991E+00   0.00000000000000E+00   0.00000000000000E+00
      8.36574752189065E-08   1.61077063962439E-12   8.36590859895461E-08   6.43940195293189E-08
      1.75000000000000E-01
      2.62500000000000E+00   2.62500000000000E+00   0.00000000000000E+00   0.00000000000000E+00  -7.71268170523356E-26
      7.71268170523356E-26   0.00000000000000E+00   6.99569296537460E-08   0.00000000000000E+00   8.37624003332644E-14
      0.00000000000000E+00   0.00000000000000E+00  -1.96637264822804E-11  -8.37084979719687E-08  -8.37281616984510E-08
     -1.34330184597738E-07   5.00000000000000E+00   4.99999999999991E+00   0.00000000000000E+00   0.00000000000000E+00
      8.37265509226270E-08   1.61077582361655E-12   8.37281616984506E-08   6.43732549439934E-08
      2.00000000000000E-01
      3.00000000000000E+00   3.00000000000000E+00   0.00000000000000E+00   0.00000000000000E+00  -7.60088158692107E-26
      7.60088158692107E-26   0.00000000000000E+00   7.73132262362896E-08   0.00000000000000E+00   8.37624003332644E-14
      0.00000000000000E+00   0.00000000000000E+00  -9.71089133557586E-11  -8.36947707354427E-08  -8.37918796487985E-08
     -1.41665403171274E-07   5.00000000000000E+00   4.99999999999991E+00   0.00000000000000E+00   0.00000000000000E+00
      8.37902688685605E-08   1.61078023768054E-12   8.37918796487982E-08   6.43521769349852E-08
      2.25000000000000E-01
      3.37500000000000E+00   3.37500000000000E+00   0.00000000000000E+00   0.00000000000000E+00  -5.86230269084284E-26
      5.86230269084284E-26   0.00000000000000E+00   8.46146199722184E-08   0.00000000000000E+00   8.42216240193020E-14
      0.00000000000000E+00   0.00000000000000E+00  -6.61981904681910E-10  -8.35556646968137E-08  -8.42176466014956E-08
     -1.48934203719715E-07   5.00000000000000E+00   4.99999999999991E+00   0.00000000000000E+00   0.00000000000000E+00
      8.42160357591934E-08   1.61084230260922E-12   8.42176466014960E-08   6.43195837474978E-08
      2.50000000000000E-01
      3.75000000000000E+00   3.75000000000000E+00   0.00000000000000E+00   0.00000000000000E+00  -7.70102537340055E-26
      7.70102537340055E-26   0.00000000000000E+00   9.23542593522393E-08   0.00000000000000E+00   8.90893950913009E-14
      0.00000000000000E+00   0.00000000000000E+00  -5.49001906858363E-09  -8.35552125285816E-08  -8.90452315971652E-08
     -1.56081462862138E-07   5.00000000000000E+00   4.99999999999990E+00   0.00000000000000E+00   0.00000000000000E+00
      8.90436199914915E-08   1.61160567348938E-12   8.90452315971650E-08   6.37272035098987E-08
      2.75000000000000E-01
      4.12500000000000E+00   4.12500000000000E+00   0.00000000000000E+00   0.00000000000000E+00  -6.19859961144736E-26
      6.19859961144736E-26   0.00000000000000E+00   1.01079762829376E-07   0.00000000000000E+00   1.35470987381102E-13
      0.00000000000000E+00   0.00000000000000E+00  -5.18650156738978E-08  -8.36281352620231E-08  -1.35493150935921E-07
     -1.63058067797650E-07   5.00000000000000E+00   4.99999999999988E+00   0.00000000000000E+00   0.00000000000000E+00
      1.35491531949447E-07   1.61898647311822E-12   1.35493150935920E-07   6.19783049682744E-08
      3.00000000000000E-01
      4.50000000000000E+00   4.50000000000000E+00   0.00000000000000E+00   0.00000000000000E+00  -6.16649274809816E-26
      6.16649274809816E-26   0.00000000000000E+00   1.10511370854301E-07   0.00000000000000E+00   6.25187126171635E-13
      0.00000000000000E+00   0.00000000000000E+00  -5.41525484909742E-07  -8.36962743510061E-08  -6.25221759260748E-07
     -1.69884659236315E-07   5.00000000000000E+00   4.99999999999939E+00   0.00000000000000E+00   0.00000000000000E+00
      6.25220062450001E-07   1.69681074469392E-12   6.25221759260746E-07   5.93732883820153E-08
      3.25000000000000E-01
      4.87500000000000E+00   4.87500000000000E+00   0.00000000000000E+00   0.00000000000000E+00  -7.06387991362683E-26
      7.06387991362683E-26   0.00000000000000E+00   1.20366303703932E-07   0.00000000000000E+00   6.37898437801156E-12
      0.00000000000000E+00   0.00000000000000E+00  -6.29523267792324E-06  -8.37645631755130E-08  -6.37899724109876E-06
     -1.76586587549025E-07   5.00000000000000E+00   4.99999999999361E+00   0.00000000000000E+00   0.00000000000000E+00
      6.37899462989077E-06   2.61120798817119E-12   6.37899724109875E-06   5.62202838450941E-08
      3.50000000000000E-01
      5.25000000000000E+00   5.25000000000000E+00   0.00000000000000E+00   0.00000000000000E+00  -6.00345797657547E-26
      6.00345797657547E-26   0.00000000000000E+00   1.30514118279771E-07   0.00000000000000E+00   8.24399279622132E-11
      0.00000000000000E+00   0.00000000000000E+00  -8.23564116594580E-05  -8.34972537671228E-08  -8.24399089132251E-05
     -1.83182486718031E-07   5.00000000000000E+00   4.99999999991757E+00   0.00000000000000E+00   0.00000000000000E+00
      8.24398942078585E-05   1.47053665978335E-11   8.24399089132251E-05   5.26683684382603E-08
      3.75000000000000E-01
      5.62500000000000E+00   5.62500000000000E+00   0.00000000000000E+00   0.00000000000000E+00  -7.58031311297122E-26
      7.58031311297122E-26   0.00000000000000E+00   1.40954188151964E-07   0.00000000000000E+00   1.22826786701058E-09
      0.00000000000000E+00   0.00000000000000E+00  -1.22818477258824E-03  -8.31067910935919E-08  -1.22826787937933E-03
     -1.89739372453536E-07   5.00000000000000E+00   4.99999999877172E+00   0.00000000000000E+00   0.00000000000000E+00
      1.22826768101193E-03   1.98367393966885E-10   1.22826787937933E-03   4.87851843015713E-08
      4.00000000000000E-01
      6.00000000000000E+00   6.00000000000000E+00   0.00000000000000E+00   0.00000000000000E+00  -4.92912253982094E-26
      4.92912253982094E-26   0.00000000000000E+00   1.51715791118471E-07   0.00000000000000E+00   1.87658303181818E-08
      0.00000000000000E+00   0.00000000000000E+00  -1.87657475659319E-02  -8.27476608743385E-08  -1.87658303135928E-02
     -1.96302399117063E-07   5.00000000000000E+00   4.99999998123419E+00   0.00000000000000E+00   0.00000000000000E+00
      1.87658269281683E-02   3.38542430905090E-09   1.87658303135926E-02   4.45866079985945E-08
      4.25000000000000E-01
      6.37500000000000E+00   6.37500000000000E+00   0.00000000000000E+00   0.00000000000000E+00  -6.14102859020360E-26
      6.14102859020360E-26   0.00000000000000E+00   1.63202378855708E-07   0.00000000000000E+00   1.89600068726720E-07
      0.00000000000000E+00   0.00000000000000E+00  -1.89599986436756E-01  -8.22991514106816E-08  -1.89600068735908E-01
     -2.02240333539234E-07   5.00000000000000E+00   4.99999981039992E+00   0.00000000000000E+00   0.00000000000000E+00
      1.89599924659157E-01   1.44076748237585E-07   1.89600068735905E-01   3.90379546835251E-08
      4.50000000000000E-01
      6.75000000000000E+00   6.75000000000000E+00   0.00000000000000E+00   0.00000000000000E+00  -5.28487871911586E-26
      5.28487871911586E-26   0.00000000000000E+00   1.75942694867690E-07   0.00000000000000E+00   8.81023054332602E-07
      0.00000000000000E+00   0.00000000000000E+00  -8.78511951854588E-01  -2.51110251555409E-03  -8.81023054370142E-01
     -2.06152198178496E-07   5.00000000000000E+00   4.99999911897696E+00   0.00000000000000E+00   0.00000000000000E+00
      8.62662395420338E-01   1.83606589497964E-02   8.81023054370134E-01   3.02095033108062E-08
      4.75000000000000E-01
      7.12500000000000E+00   7.12500000000000E+00   0.00000000000000E+00   0.00000000000000E+00  -5.43162111849475E-26
      5.43162111849475E-26   0.00000000000000E+00   1.89096312727964E-07   0.00000000000000E+00   2.70254668879692E-06
      0.00000000000000E+00   0.00000000000000E+00  -2.44103745898452E+00  -2.61509229786766E-01  -2.70254668877129E+00
     -2.12341077536376E-07   5.00000000000000E+00   4.99999729745331E+00   0.00000000000000E+00   0.00000000000000E+00
      1.40047258933638E+00   1.30207409943486E+00   2.70254668877124E+00   2.32447648084126E-08
      5.00000000000000E-01
      7.50000000000000E+00   7.50000000000000E+00   0.00000000000000E+00   0.00000000000000E+00  -1.30625238895593E-25
      1.30625238895593E-25   0.00000000000000E+00   2.02783045052050E-07   0.00000000000000E+00   6.08838757575778E-06
      0.00000000000000E+00   0.00000000000000E+00  -5.09788877202916E+00  -9.90498803744606E-01  -6.08838757577377E+00
     -2.19171149335041E-07   5.00000000000000E+00   4.99999391161244E+00   0.00000000000000E+00   0.00000000000000E+00
      1.82626016312215E+00   4.26212741265154E+00   6.08838757577369E+00   1.63881042829921E-08
      5.25000000000000E-01
      7.87500000000000E+00   7.87500000000000E+00   0.00000000000000E+00   0.00000000000000E+00  -5.82962159244518E-26
      5.82962159244518E-26   0.00000000000000E+00   2.16928844969539E-07   0.00000000000000E+00   1.11882850033162E-05
      0.00000000000000E+00   0.00000000000000E+00  -8.96957800298505E+00  -2.21870700029652E+00  -1.11882850032816E+01
     -2.26132306061614E-07   5.00000000000000E+00   4.99998881171500E+00   0.00000000000000E+00   0.00000000000000E+00
      2.26625629332694E+00   8.92202870995458E+00   1.11882850032815E+01   9.20346109207438E-09
      5.50000000000000E-01
      8.25000000000000E+00   8.25000000000000E+00   0.00000000000000E+00   0.00000000000000E+00  -5.61487074714985E-26
      5.61487074714985E-26   0.00000000000000E+00   2.31236526329676E-07   0.00000000000000E+00   1.81131709408387E-05
      0.00000000000000E+00   0.00000000000000E+00  -1.41168992831151E+01  -3.99627165779885E+00  -1.81131709409139E+01
     -2.33197665087240E-07   5.00000000000000E+00   4.99998188682907E+00   0.00000000000000E+00   0.00000000000000E+00
      2.73501464366928E+00   1.53781562972446E+01   1.81131709409139E+01   1.96113875756413E-09
      5.75000000000000E-01
      8.62500000000000E+00   8.62500000000000E+00   0.00000000000000E+00   0.00000000000000E+00  -5.20267855191846E-26
      5.20267855191846E-26   0.00000000000000E+00   2.45264867192612E-07   0.00000000000000E+00   2.63200513770393E-05
      0.00000000000000E+00   0.00000000000000E+00  -2.01213629090699E+01  -6.19868846799285E+00  -2.63200513770627E+01
     -2.40533331710678E-07   5.00000000000000E+00   4.99997367994864E+00   0.00000000000000E+00   0.00000000000000E+00
      3.19627325580248E+00   2.31237781212603E+01   2.63200513770627E+01  -4.73153548193521E-09
      6.00000000000000E-01
      9.00000000000000E+00   9.00000000000000E+00   0.00000000000000E+00   0.00000000000000E+00  -5.54848424219634E-26
      5.54848424219634E-26   0.00000000000000E+00   2.57947092957268E-07   0.00000000000000E+00   3.16556655770343E-05
      0.00000000000000E+00   0.00000000000000E+00  -2.39884907371812E+01  -7.66717483979781E+00  -3.16556655769790E+01
     -2.48432957852482E-07   5.00000000000000E+00   4.99996834433441E+00   0.00000000000000E+00   0.00000000000000E+00
      3.46386054589518E+00   2.81918050310837E+01   3.16556655769789E+01  -9.51413510478562E-09
      6.25000000000000E-01
      9.37500000000000E+00   9.37500000000000E+00   0.00000000000000E+00   0.00000000000000E+00  -4.67306610209545E-26
      4.67306610209545E-26   0.00000000000000E+00   2.69671454273712E-07   0.00000000000000E+00   3.43485644153891E-05
      0.00000000000000E+00   0.00000000000000E+00  -2.59319664321133E+01  -8.41659798320385E+00  -3.43485644153172E+01
     -2.56507335013429E-07   5.00000000000000E+00   4.99996565143557E+00   0.00000000000000E+00   0.00000000000000E+00
      3.59221219410429E+00   3.07563522212129E+01   3.43485644153172E+01  -1.31641192602841E-08
      6.50000000000000E-01
      9.75000000000000E+00   9.75000000000000E+00   0.00000000000000E+00   0.00000000000000E+00  -8.24571834997547E-26
      8.24571834997547E-26   0.00000000000000E+00   2.81046353223534E-07   0.00000000000000E+00   3.61018662536174E-05
      0.00000000000000E+00   0.00000000000000E+00  -2.71947484075537E+01  -8.90711784601321E+00  -3.61018662535669E+01
     -2.64590079485613E-07   5.00000000000000E+00   4.99996389813373E+00   0.00000000000000E+00   0.00000000000000E+00
      3.67372045356259E+00   3.24281458000043E+01   3.61018662535669E+01  -1.64562737379210E-08
      6.75000000000000E-01
      1.01250000000000E+01   1.01250000000000E+01   0.00000000000000E+00   0.00000000000000E+00  -7.10748735274930E-26
      7.10748735274930E-26   0.00000000000000E+00   2.92248186617965E-07   0.00000000000000E+00   3.73912196970584E-05
      0.00000000000000E+00   0.00000000000000E+00  -2.81221773683713E+01  -9.26904232867986E+00  -3.73912196970512E+01
     -2.72666275595802E-07   5.00000000000000E+00   4.99996260878029E+00   0.00000000000000E+00   0.00000000000000E+00
      3.73269356463716E+00   3.36585261324139E+01   3.73912196970510E+01  -1.95819110221619E-08
      7.00000000000000E-01
      1.05000000000000E+01   1.05000000000000E+01   0.00000000000000E+00   0.00000000000000E+00  -3.66523794034534E-26
      3.66523794034534E-26   0.00000000000000E+00   3.03347252199166E-07   0.00000000000000E+00   3.84019419912011E-05
      0.00000000000000E+00   0.00000000000000E+00  -2.88485110525037E+01  -9.55343093876691E+00  -3.84019419912706E+01
     -2.80735616042160E-07   5.00000000000000E+00   4.99996159805802E+00   0.00000000000000E+00   0.00000000000000E+00
      3.77837566627159E+00   3.46235663249988E+01   3.84019419912704E+01  -2.26116361570074E-08
      7.25000000000000E-01
      1.08750000000000E+01   1.08750000000000E+01   0.00000000000000E+00   0.00000000000000E+00  -2.95456166279916E-26
      2.95456166279916E-26   0.00000000000000E+00   3.14378756300626E-07   0.00000000000000E+00   3.92263570174198E-05
      0.00000000000000E+00   0.00000000000000E+00  -2.94405357493824E+01  -9.78582126804192E+00  -3.92263570174243E+01
     -2.88799459746269E-07   5.00000000000000E+00   4.99996077364297E+00   0.00000000000000E+00   0.00000000000000E+00
      3.81529359497261E+00   3.54110634224517E+01   3.92263570174243E+01  -2.55792965543574E-08
      7.50000000000000E-01
      1.12500000000000E+01   1.12500000000000E+01   0.00000000000000E+00   0.00000000000000E+00  -3.64247788790088E-26
      3.64247788790088E-26   0.00000000000000E+00   3.25362843504875E-07   0.00000000000000E+00   3.99174694994814E-05
      0.00000000000000E+00   0.00000000000000E+00  -2.99365498428379E+01  -9.98091965668012E+00  -3.99174694995180E+01
     -2.96859106475615E-07   5.00000000000000E+00   4.99996008253049E+00   0.00000000000000E+00   0.00000000000000E+00
      3.84601087483109E+00   3.60714586246866E+01   3.99174694995177E+01  -2.85037370292608E-08
      7.75000000000000E-01
      1.16250000000000E+01   1.16250000000000E+01   0.00000000000000E+00   0.00000000000000E+00  -3.44417249414402E-26
      3.44417249414402E-26   0.00000000000000E+00   3.36312089783975E-07   0.00000000000000E+00   4.05086346010491E-05
      0.00000000000000E+00   0.00000000000000E+00  -3.03606309245508E+01  -1.01480036764957E+01  -4.05086346010465E+01
     -3.04915574999828E-07   5.00000000000000E+00   4.99995949136539E+00   0.00000000000000E+00   0.00000000000000E+00
      3.87212233747965E+00   3.66365122635667E+01   4.05086346010463E+01  -3.13965147841485E-08
      8.00000000000000E-01
      1.20000000000000E+01   1.20000000000000E+01   0.00000000000000E+00   0.00000000000000E+00  -3.93756315606386E-26
      3.93756315606386E-26   0.00000000000000E+00   3.47234846168632E-07   0.00000000000000E+00   4.10222372527050E-05
      0.00000000000000E+00   0.00000000000000E+00  -3.07289246270367E+01  -1.02933126256410E+01  -4.10222372526777E+01
     -3.12969630932230E-07   5.00000000000000E+00   4.99995897776276E+00   0.00000000000000E+00   0.00000000000000E+00
      3.89468785744551E+00   3.71275493952321E+01   4.10222372526776E+01  -3.42652152364036E-08
      8.25000000000000E-01
      1.23750000000000E+01   1.23750000000000E+01   0.00000000000000E+00   0.00000000000000E+00   6.55273703264014E-19
     -6.55273703264014E-19   0.00000000000000E+00   3.58136921274483E-07   0.00000000000000E+00   4.14740346244874E-05
      0.00000000000000E+00   0.00000000000000E+00  -3.10527882612713E+01  -1.04212463463516E+01  -4.14740346076229E+01
     -3.21021846899379E-07   5.00000000000000E+00   4.99995852596537E+00   0.00000000000000E+00   0.00000000000000E+00
      3.91444715342051E+00   3.75595874542021E+01   4.14740346076226E+01  -3.71150743751051E-08
      8.50000000000000E-01
      1.27500000000000E+01   1.27500000000000E+01   0.00000000000000E+00   0.00000000000000E+00   6.92376518726414E-19
     -6.92376518726414E-19   0.00000000000000E+00   3.69022500871335E-07   0.00000000000000E+00   4.18755352196118E-05
      0.00000000000000E+00   0.00000000000000E+00  -3.13405118547478E+01  -1.05350233508753E+01  -4.18755352056231E+01
     -3.29072651617562E-07   5.00000000000000E+00   4.99995812446477E+00   0.00000000000000E+00   0.00000000000000E+00
      3.93193649897296E+00   3.79435987066499E+01   4.18755352056229E+01  -3.99498492537749E-08
      8.75000000000000E-01
      1.31250000000000E+01   1.31250000000000E+01   0.00000000000000E+00   0.00000000000000E+00   6.92029956063694E-19
     -6.92029956063694E-19   0.00000000000000E+00   3.79894693307657E-07   0.00000000000000E+00   4.22353955432455E-05
      0.00000000000000E+00   0.00000000000000E+00  -3.15983276555314E+01  -1.06370678756737E+01  -4.22353955312051E+01
     -3.37122371497106E-07   5.00000000000000E+00   4.99995776460447E+00   0.00000000000000E+00   0.00000000000000E+00
      3.94755653721916E+00   3.82878389939857E+01   4.22353955312049E+01  -4.27723218105516E-08
      9.00000000000000E-01
      1.35000000000000E+01   1.35000000000000E+01   0.00000000000000E+00   0.00000000000000E+00   6.92031116225084E-19
     -6.92031116225084E-19   0.00000000000000E+00   3.90755860401405E-07   0.00000000000000E+00   4.25602852783710E-05
      0.00000000000000E+00   0.00000000000000E+00  -3.18310352374157E+01  -1.07292500304589E+01  -4.25602852678746E+01
     -3.45171256026801E-07   5.00000000000000E+00   4.99995743971472E+00   0.00000000000000E+00   0.00000000000000E+00
      3.96161412839530E+00   3.85986711394791E+01   4.25602852678744E+01  -4.55846043746045E-08
      9.25000000000000E-01
      1.38750000000000E+01   1.38750000000000E+01   0.00000000000000E+00   0.00000000000000E+00   6.92040465077713E-19
     -6.92040465077713E-19   0.00000000000000E+00   4.01607833362154E-07   0.00000000000000E+00   4.28554473901696E-05
      0.00000000000000E+00   0.00000000000000E+00  -3.20424058870654E+01  -1.08130414937950E+01  -4.28554473808605E+01
     -3.53219498050758E-07   5.00000000000000E+00   4.99995714455260E+00   0.00000000000000E+00   0.00000000000000E+00
      3.97434918974560E+00   3.88810981911146E+01   4.28554473808602E+01  -4.83883353113968E-08
      9.50000000000001E-01
      1.42500000000000E+01   1.42500000000000E+01   0.00000000000000E+00   0.00000000000000E+00   6.92040663130178E-19
     -6.92040663130178E-19   0.00000000000000E+00   4.12452056337803E-07   0.00000000000000E+00   4.31250739534004E-05
      0.00000000000000E+00   0.00000000000000E+00  -3.22354538224881E+01  -1.08896201224868E+01  -4.31250739449749E+01
     -3.61267247946269E-07   5.00000000000000E+00   4.99995687492603E+00   0.00000000000000E+00   0.00000000000000E+00
      3.98595260863204E+00   3.91391213363427E+01   4.31250739449748E+01  -5.11848083915345E-08
      9.75000000000001E-01
      1.46250000000000E+01   1.46250000000000E+01   0.00000000000000E+00   0.00000000000000E+00   6.92047010573301E-19
     -6.92047010573301E-19   0.00000000000000E+00   4.23289685056171E-07   0.00000000000000E+00   4.33725660922025E-05
      0.00000000000000E+00   0.00000000000000E+00  -3.24126236927634E+01  -1.09599423917756E+01  -4.33725660845391E+01
     -3.69314623907092E-07   5.00000000000000E+00   4.99995662743390E+00   0.00000000000000E+00   0.00000000000000E+00
      3.99657856185760E+00   3.93759875226812E+01   4.33725660845388E+01  -5.39750611490790E-08
      1.00000000000000E+00
      1.50000000000000E+01   1.50000000000000E+01   0.00000000000000E+00   0.00000000000000E+00   6.92046409269790E-19
     -6.92046409269790E-19   0.00000000000000E+00   4.34121656341455E-07   0.00000000000000E+00   4.36007184633828E-05
      0.00000000000000E+00   0.00000000000000E+00  -3.25759235921305E+01  -1.10247948642785E+01  -4.36007184564090E+01
     -3.77361719482833E-07   5.00000000000000E+00   4.99995639928153E+00   0.00000000000000E+00   0.00000000000000E+00
      4.00635321295166E+00   3.95943652434570E+01   4.36007184564087E+01  -5.67599368586212E-08
}
