DF-ISE text

Info {
  version   = 1.0
  type      = xyplot
  datasets  = [
    "time"
    "Gate OuterVoltage" "Gate InnerVoltage" "Gate QuasiFermiPotential" "Gate DisplacementCurrent" "Gate eCurrent"
    "Gate hCurrent" "Gate TotalCurrent" "Gate Charge" "Emitter OuterVoltage" "Emitter InnerVoltage"
    "Emitter QuasiFermiPotential" "Emitter DisplacementCurrent" "Emitter eCurrent" "Emitter hCurrent" "Emitter TotalCurrent"
    "Emitter Charge" "Emitter Temperature" "Emitter lHeatFlux" "Collector OuterVoltage" "Collector InnerVoltage"
    "Collector QuasiFermiPotential" "Collector DisplacementCurrent" "Collector eCurrent" "Collector hCurrent" "Collector TotalCurrent"
    "Collector Charge" "Collector Temperature" "Collector lHeatFlux" "Tmin" "Tave"
    "Tmax" ]
  functions = [
    Time
    OuterVoltage InnerVoltage QuasiFermiPotential DisplacementCurrent eCurrent
    hCurrent TotalCurrent Charge OuterVoltage InnerVoltage
    QuasiFermiPotential DisplacementCurrent eCurrent hCurrent TotalCurrent
    Charge Temperature lHeatFlux OuterVoltage InnerVoltage
    QuasiFermiPotential DisplacementCurrent eCurrent hCurrent TotalCurrent
    Charge Temperature lHeatFlux MinTemperature AveTemperature
    MaxTemperature ]
}

Data {
      0.00000000000000E+00
      0.00000000000000E+00   0.00000000000000E+00   0.00000000000000E+00   0.00000000000000E+00  -2.01665171437939E-25
      2.01665171437939E-25   0.00000000000000E+00   1.71990951046015E-08   0.00000000000000E+00   8.33965869197276E-14
      0.00000000000000E+00   0.00000000000000E+00  -4.01885214312805E-12  -8.33833064243316E-08  -8.33873252764747E-08
     -8.17106042584897E-08   3.00000000000000E+02  -2.73461864495187E-07   5.00000000000000E+00   4.99999999999991E+00
      0.00000000000000E+00   0.00000000000000E+00   8.33857145177061E-08   1.61075876806768E-12   8.33873252764741E-08
      6.45115091538887E-08   3.00000000000000E+02  -1.19070707493978E-07   2.99999999999996E+02   3.00000000000119E+02
      3.00000000000506E+02
      2.50000000000000E-02
      3.75000000000000E-01   3.75000000000000E-01   0.00000000000000E+00   0.00000000000000E+00  -3.03619536568824E-25
      3.03619536568824E-25   0.00000000000000E+00   2.46621229255524E-08   0.00000000000000E+00   8.33736257354257E-14
      0.00000000000000E+00   0.00000000000000E+00  -4.02589737552771E-12  -8.34192023820641E-08  -8.34232282794396E-08
     -8.91548929532150E-08   3.00000000000000E+02  -2.74031323847358E-07   5.00000000000000E+00   4.99999999999991E+00
      0.00000000000000E+00   0.00000000000000E+00   8.34216175161887E-08   1.61076325026397E-12   8.34232282794390E-08
      6.44927700276630E-08   3.00000000000000E+02  -1.19853434128640E-07   2.99999999999997E+02   3.00000000000119E+02
      3.00000000000506E+02
      5.00000000000000E-02
      7.50000000000000E-01   7.50000000000000E-01   0.00000000000000E+00   0.00000000000000E+00  -2.83967615939900E-25
      2.83967615939900E-25   0.00000000000000E+00   3.23018320466207E-08   0.00000000000000E+00   8.34988685588905E-14
      0.00000000000000E+00   0.00000000000000E+00  -4.04472407143748E-12  -8.34556803204013E-08  -8.34597250444728E-08
     -9.67755322512669E-08   3.00000000000000E+02  -2.74418568829907E-07   5.00000000000000E+00   4.99999999999991E+00
      0.00000000000000E+00   0.00000000000000E+00   8.34581142815289E-08   1.61076294318267E-12   8.34597250444721E-08
      6.44737002046470E-08   3.00000000000000E+02  -1.19898604076675E-07   2.99999999999997E+02   3.00000000000119E+02
      3.00000000000506E+02
      7.50000000000000E-02
      1.12500000000000E+00   1.12500000000000E+00   0.00000000000000E+00   0.00000000000000E+00  -2.66220284894478E-25
      2.66220284894478E-25   0.00000000000000E+00   3.99358546874344E-08   0.00000000000000E+00   8.34148514981496E-14
      0.00000000000000E+00   0.00000000000000E+00  -4.09453034696005E-12  -8.34990586035278E-08  -8.35031531338747E-08
     -1.04390151082897E-07   3.00000000000000E+02  -2.75224158749845E-07   5.00000000000000E+00   4.99999999999991E+00
      0.00000000000000E+00   0.00000000000000E+00   8.35015423701431E-08   1.61076373133200E-12   8.35031531338744E-08
      6.44542963954633E-08   3.00000000000000E+02  -1.20136327674657E-07   2.99999999999997E+02   3.00000000000119E+02
      3.00000000000506E+02
      1.00000000000000E-01
      1.50000000000000E+00   1.50000000000000E+00   0.00000000000000E+00   0.00000000000000E+00  -2.62093574936326E-25
      2.62093574936326E-25   0.00000000000000E+00   4.75278395634540E-08   0.00000000000000E+00   8.35781890137516E-14
      0.00000000000000E+00   0.00000000000000E+00  -4.25030539475829E-12  -8.35475087205114E-08  -8.35517590259061E-08
     -1.11962391811282E-07   3.00000000000000E+02  -2.74817516806337E-07   5.00000000000000E+00   4.99999999999991E+00
      0.00000000000000E+00   0.00000000000000E+00   8.35501482604878E-08   1.61076541782459E-12   8.35517590259056E-08
      6.44345522478285E-08   3.00000000000000E+02  -1.19928992468822E-07   2.99999999999997E+02   3.00000000000119E+02
      3.00000000000506E+02
      1.25000000000000E-01
      1.87500000000000E+00   1.87500000000000E+00   0.00000000000000E+00   0.00000000000000E+00  -3.07663266778349E-25
      3.07663266778349E-25   0.00000000000000E+00   5.50644753066840E-08   0.00000000000000E+00   8.35807982392404E-14
      0.00000000000000E+00   0.00000000000000E+00  -4.79430711070865E-12  -8.36003237493528E-08  -8.36051180564636E-08
     -1.19478934114529E-07   3.00000000000000E+02  -2.74936127612166E-07   5.00000000000000E+00   4.99999999999991E+00
      0.00000000000000E+00   0.00000000000000E+00   8.36035072885230E-08   1.61076793972861E-12   8.36051180564627E-08
      6.44144588078449E-08   3.00000000000000E+02  -1.19898604076675E-07   2.99999999999997E+02   3.00000000000119E+02
      3.00000000000506E+02
      1.50000000000000E-01
      2.25000000000000E+00   2.25000000000000E+00   0.00000000000000E+00   0.00000000000000E+00  -1.70294376718632E-25
      1.70294376718632E-25   0.00000000000000E+00   6.25390027898516E-08   0.00000000000000E+00   8.36695119058613E-14
      0.00000000000000E+00   0.00000000000000E+00  -7.18085232400794E-12  -8.36519055002322E-08  -8.36590863525562E-08
     -1.26933022319167E-07   3.00000000000000E+02  -2.75127505460586E-07   5.00000000000000E+00   4.99999999999991E+00
      0.00000000000000E+00   0.00000000000000E+00   8.36574755819160E-08   1.61077064011225E-12   8.36590863525561E-08
      6.43940195293169E-08   3.00000000000000E+02  -1.19956342021753E-07   2.99999999999997E+02   3.00000000000119E+02
      3.00000000000506E+02
      1.75000000000000E-01
      2.62500000000000E+00   2.62500000000000E+00   0.00000000000000E+00   0.00000000000000E+00   1.48293345634000E-22
     -1.48293345634000E-22   0.00000000000000E+00   6.99569316944009E-08   0.00000000000000E+00   8.37237837960294E-14
      0.00000000000000E+00   0.00000000000000E+00  -1.96651102732615E-11  -8.37084969923668E-08  -8.37281621026400E-08
     -1.34330186638391E-07   3.00000000000000E+02  -2.74703361676219E-07   5.00000000000000E+00   4.99999999999991E+00
      0.00000000000000E+00   0.00000000000000E+00   8.37265513268352E-08   1.61077580425836E-12   8.37281621026395E-08
      6.43732549439912E-08   3.00000000000000E+02  -1.19966152678637E-07   2.99999999999997E+02   3.00000000000119E+02
      3.00000000000506E+02
      2.00000000000000E-01
      3.00000000000000E+00   3.00000000000000E+00   0.00000000000000E+00   0.00000000000000E+00   2.44927231512242E-18
     -2.44927231512242E-18   0.00000000000000E+00   7.73132262084070E-08   0.00000000000000E+00   1.51829787505997E-13
      0.00000000000000E+00   0.00000000000000E+00  -9.71087588583493E-11  -8.36947704231381E-08  -8.37918791819965E-08
     -1.41665403143414E-07   3.00000000000000E+02   9.02061876496022E-06   5.00000000000000E+00   4.99999999999991E+00
      0.00000000000000E+00   0.00000000000000E+00   8.37902687267618E-08   1.61045523459060E-12   8.37918791819964E-08
      6.43521769350082E-08   3.00000000000000E+02   1.03234955447915E-07   2.99999999982034E+02   2.99999999998989E+02
      3.00000000000021E+02
      2.25000000000000E-01
      3.37500000000000E+00   3.37500000000000E+00   0.00000000000000E+00   0.00000000000000E+00  -3.92576807442551E-25
      3.92576807442551E-25   0.00000000000000E+00   8.46146199656807E-08   0.00000000000000E+00   8.40885535193707E-14
      0.00000000000000E+00   0.00000000000000E+00  -6.61981899363217E-10  -8.35556647028960E-08  -8.42176466022592E-08
     -1.48934203713176E-07   3.00000000000000E+02  -2.76862304463887E-07   5.00000000000000E+00   4.99999999999991E+00
      0.00000000000000E+00   0.00000000000000E+00   8.42160357599567E-08   1.61084230278966E-12   8.42176466022595E-08
      6.43195837474958E-08   3.00000000000000E+02  -1.20053172236438E-07   2.99999999999997E+02   3.00000000000120E+02
      3.00000000000507E+02
      2.50000000000000E-01
      3.75000000000000E+00   3.75000000000000E+00   0.00000000000000E+00   0.00000000000000E+00  -2.74733673125936E-25
      2.74733673125936E-25   0.00000000000000E+00   9.23542593541989E-08   0.00000000000000E+00   8.89985940442890E-14
      0.00000000000000E+00   0.00000000000000E+00  -5.49001907105498E-09  -8.35552125288256E-08  -8.90452315998806E-08
     -1.56081462864096E-07   3.00000000000000E+02  -2.97306123745283E-07   5.00000000000000E+00   4.99999999999990E+00
      0.00000000000000E+00   0.00000000000000E+00   8.90436199942062E-08   1.61160567403636E-12   8.90452315998803E-08
      6.37272035098975E-08   3.00000000000000E+02  -1.23137669218252E-07   2.99999999999995E+02   3.00000000000124E+02
      3.00000000000510E+02
      2.75000000000000E-01
      4.12500000000000E+00   4.12500000000000E+00   0.00000000000000E+00   0.00000000000000E+00  -2.58358380848491E-25
      2.58358380848491E-25   0.00000000000000E+00   1.01079762829383E-07   0.00000000000000E+00   1.35388014010557E-13
      0.00000000000000E+00   0.00000000000000E+00  -5.18650156752766E-08  -8.36281352641508E-08  -1.35493150939427E-07
     -1.63058067797644E-07   3.00000000000000E+02  -4.89101751234711E-07   5.00000000000000E+00   4.99999999999988E+00
      0.00000000000000E+00   0.00000000000000E+00   1.35491531953511E-07   1.61898591570992E-12   1.35493150939427E-07
      6.19783049682605E-08   3.00000000000000E+02  -1.52326190165365E-07   2.99999999999977E+02   3.00000000000159E+02
      3.00000000000546E+02
      3.00000000000000E-01
      4.50000000000000E+00   4.50000000000000E+00   0.00000000000000E+00   0.00000000000000E+00  -1.89212819204123E-22
      1.89212819204123E-22   0.00000000000000E+00   1.10511370857161E-07   0.00000000000000E+00   6.25140681957933E-13
      0.00000000000000E+00   0.00000000000000E+00  -5.41525279117529E-07  -8.36962743887667E-08  -6.25221553506295E-07
     -1.69884659235899E-07   3.00000000000000E+02  -2.51005272892461E-06   5.00000000000000E+00   4.99999999999939E+00
      0.00000000000000E+00   0.00000000000000E+00   6.25219856666153E-07   1.69684013991281E-12   6.25221553506293E-07
      5.93732883787395E-08   3.00000000000000E+02  -4.59177757947474E-07   2.99999999999788E+02   3.00000000000529E+02
      3.00000000003607E+02
      3.25000000000000E-01
      4.87500000000000E+00   4.87500000000000E+00   0.00000000000000E+00   0.00000000000000E+00  -7.27185933394700E-25
      7.27185933394700E-25   0.00000000000000E+00   1.20366303703658E-07   0.00000000000000E+00   6.37897081003902E-12
      0.00000000000000E+00   0.00000000000000E+00  -6.29523268512474E-06  -8.37645632529273E-08  -6.37899724837767E-06
     -1.76586587548805E-07   3.00000000000000E+02  -2.62603507869610E-05   5.00000000000000E+00   4.99999999999361E+00
      0.00000000000000E+00   0.00000000000000E+00   6.37899463716905E-06   2.61120862675769E-12   6.37899724837767E-06
      5.62202838451485E-08   3.00000000000000E+02  -4.05513930563486E-06   2.99999999997562E+02   3.00000000004956E+02
      3.00000000040495E+02
      3.50000000000000E-01
      5.25000000000000E+00   5.25000000000000E+00   0.00000000000000E+00   0.00000000000000E+00  -1.84113039412065E-23
      1.84113039412065E-23   0.00000000000000E+00   1.30514118273545E-07   0.00000000000000E+00   8.24399556200034E-11
      0.00000000000000E+00   0.00000000000000E+00  -8.23564062428410E-05  -8.34972547434774E-08  -8.24399034975845E-05
     -1.83182486712154E-07   3.00000000000000E+02  -3.40270971254520E-04   5.00000000000000E+00   4.99999999991757E+00
      0.00000000000000E+00   0.00000000000000E+00   8.24398887922110E-05   1.47053734577634E-11   8.24399034975845E-05
      5.26683684386100E-08   3.00000000000000E+02  -5.15080308939774E-05   2.99999999968128E+02   3.00000000063202E+02
      3.00000000522395E+02
      3.75000000000000E-01
      5.62500000000000E+00   5.62500000000000E+00   0.00000000000000E+00   0.00000000000000E+00  -2.58155167764166E-21
      2.58155167764166E-21   0.00000000000000E+00   1.40954188114712E-07   0.00000000000000E+00   1.22826806113695E-09
      0.00000000000000E+00   0.00000000000000E+00  -1.22818497326052E-03  -8.31068053902585E-08  -1.22826808006591E-03
     -1.89739372409469E-07   3.00000000000000E+02  -5.07042667402440E-03   5.00000000000000E+00   4.99999999877172E+00
      0.00000000000000E+00   0.00000000000000E+00   1.22826788169839E-03   1.98367512791747E-10   1.22826808006590E-03
      4.87851842947565E-08   3.00000000000000E+02  -7.66212243329131E-04   2.99999999526921E+02   3.00000000939031E+02
      3.00000007661064E+02
      4.00000000000000E-01
      6.00000000000000E+00   6.00000000000000E+00   0.00000000000000E+00   0.00000000000000E+00  -3.75982463527779E-21
      3.75982463527779E-21   0.00000000000000E+00   1.51715790865188E-07   0.00000000000000E+00   1.87658659461122E-08
      0.00000000000000E+00   0.00000000000000E+00  -1.87657832178575E-02  -8.27478754114829E-08  -1.87658659657329E-02
     -1.96302398269555E-07   3.00000000000000E+02  -7.72621033687436E-02   5.00000000000000E+00   4.99999998123412E+00
      0.00000000000000E+00   0.00000000000000E+00   1.87658625802991E-02   3.38543367357492E-09   1.87658659657327E-02
      4.45866074043687E-08   3.00000000000000E+02  -1.19078657950702E-02   2.99999993335789E+02   3.00000014317622E+02
      3.00000114106943E+02
      4.25000000000000E-01
      6.37500000000000E+00   6.37500000000000E+00   0.00000000000000E+00   0.00000000000000E+00  -7.96262803044465E-23
      7.96262803044465E-23   0.00000000000000E+00   1.63202383526720E-07   0.00000000000000E+00   1.89602113201007E-07
      0.00000000000000E+00   0.00000000000000E+00  -1.89602030851774E-01  -8.23012430139338E-08  -1.89602113153017E-01
     -2.02240315955283E-07   3.00000000000000E+02  -7.60273419820931E-01   5.00000000000000E+00   4.99999981039790E+00
      0.00000000000000E+00   0.00000000000000E+00   1.89601969071273E-01   1.44081741923134E-07   1.89602113153015E-01
      3.90379324285622E-08   3.00000000000000E+02  -1.40848564599126E-01   2.99999985650219E+02   3.00000143824443E+02
      3.00001095335136E+02
      4.50000000000000E-01
      6.75000000000000E+00   6.75000000000000E+00   0.00000000000000E+00   0.00000000000000E+00  -4.88208668421190E-22
      4.88208668421190E-22   0.00000000000000E+00   1.75942749640391E-07   0.00000000000000E+00   8.81043449583163E-07
      0.00000000000000E+00   0.00000000000000E+00  -8.78531397068945E-01  -2.51205260412811E-03  -8.81043449673073E-01
     -2.06152104682950E-07   3.00000000000000E+02  -3.21736055227993E+00   5.00000000000000E+00   4.99999911895656E+00
      0.00000000000000E+00   0.00000000000000E+00   8.62676266984844E-01   1.83671826882270E-02   8.81043449673071E-01
      3.02093550425585E-08   3.00000000000000E+02  -9.77909694185150E-01   3.00000020660269E+02   3.00000662874959E+02
      3.00004587344349E+02
      4.75000000000000E-01
      7.12500000000000E+00   7.12500000000000E+00   0.00000000000000E+00   0.00000000000000E+00  -7.94203439036829E-22
      7.94203439036829E-22   0.00000000000000E+00   1.89096500522668E-07   0.00000000000000E+00   2.70263489932503E-06
      0.00000000000000E+00   0.00000000000000E+00  -2.44110602601590E+00  -2.61528873236631E-01  -2.70263489925253E+00
     -2.12340984689516E-07   3.00000000000000E+02  -9.69210479692503E+00   5.00000000000000E+00   4.99999729736509E+00
      0.00000000000000E+00   0.00000000000000E+00   1.40048188243799E+00   1.30215301681450E+00   2.70263489925249E+00
      2.32444841668476E-08   3.00000000000000E+02  -3.48335728370942E+00   3.00000114163963E+02   3.00002437064274E+02
      3.00012207994571E+02
      5.00000000000000E-01
      7.50000000000000E+00   7.50000000000000E+00   0.00000000000000E+00   0.00000000000000E+00  -6.33849027938107E-19
      6.33849027938107E-19   0.00000000000000E+00   2.02783573210338E-07   0.00000000000000E+00   6.08850888505327E-06
      0.00000000000000E+00   0.00000000000000E+00  -5.09798175792577E+00  -9.90527126855099E-01  -6.08850888478087E+00
     -2.19170958689556E-07   3.00000000000000E+02  -2.18125472510927E+01   5.00000000000000E+00   4.99999391149113E+00
      0.00000000000000E+00   0.00000000000000E+00   1.82626832289450E+00   4.26224056188632E+00   6.08850888478082E+00
      1.63873854792193E-08   3.00000000000000E+02  -8.18972013741707E+00   3.00000314410766E+02   3.00005859055710E+02
      3.00024270355449E+02
      5.25000000000000E-01
      7.87500000000000E+00   7.87500000000000E+00   0.00000000000000E+00   0.00000000000000E+00  -2.29402496997343E-21
      2.29402496997343E-21   0.00000000000000E+00   2.16929947725408E-07   0.00000000000000E+00   1.11881221192015E-05
      0.00000000000000E+00   0.00000000000000E+00  -8.96946428067470E+00  -2.21865783696043E+00  -1.11881221176351E+01
     -2.26131967113357E-07   3.00000000000000E+02  -3.99944281370674E+01   5.00000000000000E+00   4.99998881187789E+00
      0.00000000000000E+00   0.00000000000000E+00   2.26623784961507E+00   8.92188426801998E+00   1.11881221176350E+01
      9.20201938794848E-09   3.00000000000000E+02  -1.53999085254193E+01   3.00000586964489E+02   3.00011056931602E+02
      3.00039924997372E+02
      5.50000000000000E-01
      8.25000000000000E+00   8.25000000000000E+00   0.00000000000000E+00   0.00000000000000E+00  -3.16365056818672E-21
      3.16365056818672E-21   0.00000000000000E+00   2.31238340127187E-07   0.00000000000000E+00   1.81118410576363E-05
      0.00000000000000E+00   0.00000000000000E+00  -1.41159451901223E+01  -3.99589585206553E+00  -1.81118410421878E+01
     -2.33197163585792E-07   3.00000000000000E+02  -6.45275876444703E+01   5.00000000000000E+00   4.99998188815893E+00
      0.00000000000000E+00   0.00000000000000E+00   2.73491528969677E+00   1.53769257524910E+01   1.81118410421878E+01
      1.95882345860298E-09   3.00000000000000E+02  -2.53739476444131E+01   3.00000953015834E+02   3.00018224800554E+02
      3.00062964137960E+02
      5.75000000000000E-01
      8.62500000000000E+00   8.62500000000000E+00   0.00000000000000E+00   0.00000000000000E+00  -4.19440748294527E-21
      4.19440748294527E-21   0.00000000000000E+00   2.45267009884863E-07   0.00000000000000E+00   2.63148595238957E-05
      0.00000000000000E+00   0.00000000000000E+00  -2.01176402326254E+01  -6.19722081769697E+00  -2.63148610503223E+01
     -2.40532837902702E-07   3.00000000000000E+02  -9.34047749561044E+01   5.00000000000000E+00   4.99997368514046E+00
      0.00000000000000E+00   0.00000000000000E+00   3.19595969918739E+00   2.31189013511348E+01   2.63148610503222E+01
     -4.73417198216271E-09   3.00000000000000E+02  -3.74050281011369E+01   3.00001384060465E+02   3.00026875659661E+02
      3.00091566848107E+02
      6.00000000000000E-01
      9.00000000000000E+00   9.00000000000000E+00   0.00000000000000E+00   0.00000000000000E+00  -4.34283579575480E-21
      4.34283579575480E-21   0.00000000000000E+00   2.57948471240355E-07   0.00000000000000E+00   3.16436883113069E-05
      0.00000000000000E+00   0.00000000000000E+00  -2.39799068530324E+01  -7.66378145795049E+00  -3.16436883109829E+01
     -2.48432654270119E-07   3.00000000000000E+02  -1.12064623255582E+02   5.00000000000000E+00   4.99996835631170E+00
      0.00000000000000E+00   0.00000000000000E+00   3.46321698577055E+00   2.81804713252122E+01   3.16436883109827E+01
     -9.51581697023528E-09   3.00000000000000E+02  -4.53300937208315E+01   3.00001662443451E+02   3.00032585342534E+02
      3.00110435598800E+02
      6.25000000000000E-01
      9.37500000000000E+00   9.37500000000000E+00   0.00000000000000E+00   0.00000000000000E+00  -1.06672397603404E-20
      1.06672397603404E-20   0.00000000000000E+00   2.69672475953934E-07   0.00000000000000E+00   3.43330642821566E-05
      0.00000000000000E+00   0.00000000000000E+00  -2.59208051617233E+01  -8.41217852098058E+00  -3.43329836827038E+01
     -2.56506993212990E-07   3.00000000000000E+02  -1.21453247768977E+02   5.00000000000000E+00   4.99996566693574E+00
      0.00000000000000E+00   0.00000000000000E+00   3.59133993538310E+00   3.07416437473208E+01   3.43329836827039E+01
     -1.31654827409445E-08   3.00000000000000E+02  -4.93613501523403E+01   3.00001802373445E+02   3.00035494564017E+02
      3.00119981189118E+02
      6.50000000000000E-01
      9.75000000000000E+00   9.75000000000000E+00   0.00000000000000E+00   0.00000000000000E+00  -4.62982805708447E-21
      4.62982805708447E-21   0.00000000000000E+00   2.81047195277408E-07   0.00000000000000E+00   3.60840164788100E-05
      0.00000000000000E+00   0.00000000000000E+00  -2.71819909663892E+01  -8.90202551241916E+00  -3.60840164788084E+01
     -2.64589687112545E-07   3.00000000000000E+02  -1.27556002905726E+02   5.00000000000000E+00   4.99996391598350E+00
      0.00000000000000E+00   0.00000000000000E+00   3.67281567485769E+00   3.24112008039506E+01   3.60840164788083E+01
     -1.64575081648638E-08   3.00000000000000E+02  -5.19966432035699E+01   3.00001893659540E+02   3.00037398019890E+02
      3.00126184494582E+02
      6.75000000000000E-01
      1.01250000000000E+01   1.01250000000000E+01   0.00000000000000E+00   0.00000000000000E+00  -6.42012937596115E-18
      6.42012937596115E-18   0.00000000000000E+00   2.92248917081934E-07   0.00000000000000E+00   3.73717014074247E-05
      0.00000000000000E+00   0.00000000000000E+00  -2.81082392154311E+01  -9.26346219193660E+00  -3.73717014073677E+01
     -2.72665836384344E-07   3.00000000000000E+02  -1.32039460888686E+02   5.00000000000000E+00   4.99996262829858E+00
      0.00000000000000E+00   0.00000000000000E+00   3.73171777308581E+00   3.36399836342819E+01   3.73717014073677E+01
     -1.95830806975891E-08   3.00000000000000E+02  -5.39396832235812E+01   3.00001960872231E+02   3.00038802114448E+02
      3.00130741757009E+02
      7.00000000000000E-01
      1.05000000000000E+01   1.05000000000000E+01   0.00000000000000E+00   0.00000000000000E+00  -4.81095717283566E-21
      4.81095717283566E-21   0.00000000000000E+00   3.03347904505370E-07   0.00000000000000E+00   3.83811136271583E-05
      0.00000000000000E+00   0.00000000000000E+00  -2.88336471032448E+01  -9.54746652366423E+00  -3.83811136269090E+01
     -2.80735136698638E-07   3.00000000000000E+02  -1.35551423683024E+02   5.00000000000000E+00   4.99996161888636E+00
      0.00000000000000E+00   0.00000000000000E+00   3.77734495636388E+00   3.46037686705452E+01   3.83811136269091E+01
     -2.26127678067331E-08   3.00000000000000E+02  -5.54656104039292E+01   3.00002013600095E+02   3.00039905085583E+02
      3.00134310791380E+02
      7.25000000000000E-01
      1.08750000000000E+01   1.08750000000000E+01   0.00000000000000E+00   0.00000000000000E+00  -4.87920943009579E-21
      4.87920943009579E-21   0.00000000000000E+00   3.14379349788611E-07   0.00000000000000E+00   3.92044564309688E-05
      0.00000000000000E+00   0.00000000000000E+00  -2.94249148426122E+01  -9.77954158845443E+00  -3.92044564310667E+01
     -2.88798945818999E-07   3.00000000000000E+02  -1.38414387911265E+02   5.00000000000000E+00   4.99996079554357E+00
      0.00000000000000E+00   0.00000000000000E+00   3.81421844642691E+00   3.53902379846398E+01   3.92044564310667E+01
     -2.55804039696131E-08   3.00000000000000E+02  -5.67119733769889E+01   3.00002056631137E+02   3.00040806122637E+02
      3.00137219123376E+02
      7.50000000000000E-01
      1.12500000000000E+01   1.12500000000000E+01   0.00000000000000E+00   0.00000000000000E+00  -2.15329005297832E-19
      2.15329005297832E-19   0.00000000000000E+00   3.25363390342903E-07   0.00000000000000E+00   3.98946691658783E-05
      0.00000000000000E+00   0.00000000000000E+00  -2.99202942381995E+01  -9.97437446813301E+00  -3.98946687063325E+01
     -2.96858562252123E-07   3.00000000000000E+02  -1.40813345967025E+02   5.00000000000000E+00   4.99996010533084E+00
      0.00000000000000E+00   0.00000000000000E+00   3.84489859073197E+00   3.60497701156005E+01   3.98946687063324E+01
     -2.85048280907803E-08   3.00000000000000E+02  -5.77579373335783E+01   3.00002092718120E+02   3.00041562350581E+02
      3.00139654789703E+02
      7.75000000000000E-01
      1.16250000000000E+01   1.16250000000000E+01   0.00000000000000E+00   0.00000000000000E+00  -2.91612890283235E-17
      2.91612890283235E-17   0.00000000000000E+00   3.36312598779197E-07   0.00000000000000E+00   4.04850573379748E-05
      0.00000000000000E+00   0.00000000000000E+00  -3.03438275814524E+01  -1.01412297565008E+01  -4.04850573379532E+01
     -3.04915004245292E-07   3.00000000000000E+02  -1.42864590915960E+02   5.00000000000000E+00   4.99995951494268E+00
      0.00000000000000E+00   0.00000000000000E+00   3.87097855133734E+00   3.66140787866159E+01   4.04850573379532E+01
     -3.13975945339060E-08   3.00000000000000E+02  -5.86534069041199E+01   3.00002123594682E+02   3.00042209798654E+02
      3.00141736112493E+02
      8.00000000000000E-01
      1.20000000000000E+01   1.20000000000000E+01   0.00000000000000E+00   0.00000000000000E+00  -1.79881817996287E-18
      1.79881817996287E-18   0.00000000000000E+00   3.47235325600739E-07   0.00000000000000E+00   4.09980483551744E-05
      0.00000000000000E+00   0.00000000000000E+00  -3.07116909903379E+01  -1.02863573587445E+01  -4.09980483490824E+01
     -3.12969039882735E-07   3.00000000000000E+02  -1.44197060718656E+02   5.00000000000000E+00   4.99995900195163E+00
      0.00000000000000E+00   0.00000000000000E+00   3.89351971997827E+00   3.71045286291041E+01   4.09980483490824E+01
     -3.42662857180046E-08   3.00000000000000E+02  -5.93681842015953E+01   3.00002147672315E+02   3.00042681991458E+02
      3.00143233756796E+02
      8.25000000000000E-01
      1.23750000000000E+01   1.23750000000000E+01   0.00000000000000E+00   0.00000000000000E+00  -2.98129105688537E-17
      2.98129105688537E-17   0.00000000000000E+00   3.58137370145989E-07   0.00000000000000E+00   4.14491868160687E-05
      0.00000000000000E+00   0.00000000000000E+00  -3.10350898535516E+01  -1.04140969621928E+01  -4.14491868157444E+01
     -3.21021230339542E-07   3.00000000000000E+02  -1.46212929520745E+02   5.00000000000000E+00   4.99995855081319E+00
      0.00000000000000E+00   0.00000000000000E+00   3.91325201829133E+00   3.75359347974532E+01   4.14491868157446E+01
     -3.71161398064488E-08   3.00000000000000E+02  -6.01172113378312E+01   3.00002174032002E+02   3.00043268171885E+02
      3.00145130041184E+02
      8.50000000000000E-01
      1.27500000000000E+01   1.27500000000000E+01   0.00000000000000E+00   0.00000000000000E+00  -2.59048171931333E-18
      2.59048171931333E-18   0.00000000000000E+00   3.69022925843124E-07   0.00000000000000E+00   4.18501568989089E-05
      0.00000000000000E+00   0.00000000000000E+00  -3.13224399333189E+01  -1.05277169656211E+01  -4.18501568989401E+01
     -3.29072015561817E-07   3.00000000000000E+02  -1.47604961667121E+02   5.00000000000000E+00   4.99995814984311E+00
      0.00000000000000E+00   0.00000000000000E+00   3.93072006984329E+00   3.79194368290969E+01   4.18501568989402E+01
     -3.99509102813075E-08   3.00000000000000E+02  -6.07264952900639E+01   3.00002194942131E+02   3.00043708685884E+02
      3.00146539416963E+02
      8.75000000000000E-01
      1.31250000000000E+01   1.31250000000000E+01   0.00000000000000E+00   0.00000000000000E+00  -1.88162537924903E-20
      1.88162537924903E-20   0.00000000000000E+00   3.79895097153374E-07   0.00000000000000E+00   4.22095407067919E-05
      0.00000000000000E+00   0.00000000000000E+00  -3.15799203480804E+01  -1.06296203586714E+01  -4.22095407067518E+01
     -3.37121717602970E-07   3.00000000000000E+02  -1.48852379755646E+02   5.00000000000000E+00   4.99995779045929E+00
      0.00000000000000E+00   0.00000000000000E+00   3.94632105724808E+00   3.82632196495036E+01   4.22095407067517E+01
     -4.27733795504042E-08   3.00000000000000E+02  -6.12728256271705E+01   3.00002213607569E+02   3.00044103667624E+02
      3.00147801410186E+02
      9.00000000000000E-01
      1.35000000000000E+01   1.35000000000000E+01   0.00000000000000E+00   0.00000000000000E+00  -3.04734138713582E-17
      3.04734138713582E-17   0.00000000000000E+00   3.90756245362160E-07   0.00000000000000E+00   4.25339994348226E-05
      0.00000000000000E+00   0.00000000000000E+00  -3.18123246631871E+01  -1.07216747716261E+01  -4.25339994348132E+01
     -3.45170585713221E-07   3.00000000000000E+02  -1.49978383340837E+02   5.00000000000000E+00   4.99995746600055E+00
      0.00000000000000E+00   0.00000000000000E+00   3.96036147759491E+00   3.85736379572180E+01   4.25339994348129E+01
     -4.55856596489392E-08   3.00000000000000E+02  -6.17662483647313E+01   3.00002230459631E+02   3.00044460380230E+02
      3.00148939692592E+02
      9.25000000000000E-01
      1.38750000000000E+01   1.38750000000000E+01   0.00000000000000E+00   0.00000000000000E+00  -6.47254217582973E-19
      6.47254217582973E-19   0.00000000000000E+00   4.01608201281341E-07   0.00000000000000E+00   4.28287693540512E-05