DF-ISE text

Info {
  version   = 1.0
  type      = xyplot
  datasets  = [
    "time"
    "Gate OuterVoltage" "Gate InnerVoltage" "Gate QuasiFermiPotential" "Gate DisplacementCurrent" "Gate eCurrent"
    "Gate hCurrent" "Gate TotalCurrent" "Gate Charge" "Emitter OuterVoltage" "Emitter InnerVoltage"
    "Emitter QuasiFermiPotential" "Emitter DisplacementCurrent" "Emitter eCurrent" "Emitter hCurrent" "Emitter TotalCurrent"
    "Emitter Charge" "Collector OuterVoltage" "Collector InnerVoltage" "Collector QuasiFermiPotential" "Collector DisplacementCurrent"
    "Collector eCurrent" "Collector hCurrent" "Collector TotalCurrent" "Collector Charge" ]
  functions = [
    Time
    OuterVoltage InnerVoltage QuasiFermiPotential DisplacementCurrent eCurrent
    hCurrent TotalCurrent Charge OuterVoltage InnerVoltage
    QuasiFermiPotential DisplacementCurrent eCurrent hCurrent TotalCurrent
    Charge OuterVoltage InnerVoltage QuasiFermiPotential DisplacementCurrent
    eCurrent hCurrent TotalCurrent Charge ]
}

Data {
      0.00000000000000E+00
      1.50000000000000E+01   1.50000000000000E+01   0.00000000000000E+00   0.00000000000000E+00  -6.20668895078847E-26
      6.20668895078847E-26   0.00000000000000E+00   4.35857536629048E-07   0.00000000000000E+00   0.00000000000000E+00
      0.00000000000000E+00   0.00000000000000E+00   1.58003658902415E-13   1.73127288795214E-17   1.58020971631295E-13
     -3.41542206631767E-07   0.00000000000000E+00   0.00000000000000E+00   0.00000000000000E+00   0.00000000000000E+00
     -1.58003661125333E-13  -1.73105059456293E-17  -1.58020971631279E-13  -9.43153299972778E-08
      1.25000000000000E-02
      1.50000000000000E+01   1.50000000000000E+01   0.00000000000000E+00   0.00000000000000E+00  -7.40905150026542E-26
      7.40905150026542E-26   0.00000000000000E+00   4.35850039551244E-07   0.00000000000000E+00   1.45369860511376E-07
      0.00000000000000E+00   0.00000000000000E+00  -1.45369858464978E-01  -2.05435415390487E-09  -1.45369860519332E-01
     -3.41743514391721E-07   1.25000000000000E-01   1.24999854630139E-01   0.00000000000000E+00   0.00000000000000E+00
      1.45369787747606E-01   7.27717236807732E-08   1.45369860519329E-01  -9.41065251595213E-08
      2.50000000000000E-02
      1.50000000000000E+01   1.50000000000000E+01   0.00000000000000E+00   0.00000000000000E+00  -7.57916939508350E-26
      7.57916939508350E-26   0.00000000000000E+00   4.35842214469835E-07   0.00000000000000E+00   2.97054293400733E-07
      0.00000000000000E+00   0.00000000000000E+00  -2.97054284174117E-01  -9.22372438922689E-09  -2.97054293397841E-01
     -3.41952619284678E-07   2.50000000000000E-01   2.49999702945706E-01   0.00000000000000E+00   0.00000000000000E+00
      2.97053606590319E-01   6.86807522567179E-07   2.97054293397842E-01  -9.38895951851593E-08
      3.75000000000000E-02
      1.50000000000000E+01   1.50000000000000E+01   0.00000000000000E+00   0.00000000000000E+00  -7.27014424172939E-26
      7.27014424172939E-26   0.00000000000000E+00   4.35834026540767E-07   0.00000000000000E+00   4.55722561991785E-07
      0.00000000000000E+00   0.00000000000000E+00  -4.55722236945730E-01  -3.25060256555169E-07  -4.55722562005987E-01
     -3.42170292118020E-07   3.75000000000000E-01   3.74999544277439E-01   0.00000000000000E+00   0.00000000000000E+00
      4.55715024197759E-01   7.53780822258660E-06   4.55722562005982E-01  -9.36637344227462E-08
      5.00000000000000E-02
      1.50000000000000E+01   1.50000000000000E+01   0.00000000000000E+00   0.00000000000000E+00  -6.98051087440756E-26
      6.98051087440756E-26   0.00000000000000E+00   4.35825388538132E-07   0.00000000000000E+00   6.23073699414637E-07
      0.00000000000000E+00   0.00000000000000E+00  -6.23056148970752E-01  -1.75504279430363E-05  -6.23073699398695E-01
     -3.42398628912443E-07   5.00000000000000E-01   4.99999376926300E-01   0.00000000000000E+00   0.00000000000000E+00
      6.22904468640062E-01   1.69230758626225E-04   6.23073699398689E-01  -9.34267596256887E-08
      6.25000000000000E-02
      1.50000000000000E+01   1.50000000000000E+01   0.00000000000000E+00   0.00000000000000E+00  -7.33185221698956E-26
      7.33185221698956E-26   0.00000000000000E+00   4.35815674844182E-07   0.00000000000000E+00   8.12034744329990E-07
      0.00000000000000E+00   0.00000000000000E+00  -8.11158034874552E-01  -8.76709430391853E-04  -8.12034744304944E-01
     -3.42653159935745E-07   6.25000000000000E-01   6.24999187965258E-01   0.00000000000000E+00   0.00000000000000E+00
      8.05309738350840E-01   6.72500595410160E-03   8.12034744304942E-01  -9.31625149084358E-08
      7.50000000000000E-02
      1.50000000000000E+01   1.50000000000000E+01   0.00000000000000E+00   0.00000000000000E+00  -8.44630350034806E-26
      8.44630350034806E-26   0.00000000000000E+00   4.35797347509684E-07   0.00000000000000E+00   1.18909568403608E-06
      0.00000000000000E+00   0.00000000000000E+00  -1.16582038627578E+00  -2.32752977992905E-02  -1.18909568407507E+00
     -3.43114796108230E-07   7.50000000000000E-01   7.49998810904316E-01   0.00000000000000E+00   0.00000000000000E+00
      1.03401710583999E+00   1.55078578235062E-01   1.18909568407505E+00  -9.26825514014543E-08
      8.75000000000000E-02
      1.50000000000000E+01   1.50000000000000E+01   0.00000000000000E+00   0.00000000000000E+00  -8.11497271954821E-26
      8.11497271954821E-26   0.00000000000000E+00   4.35758248415666E-07   0.00000000000000E+00   2.06620673109365E-06
      0.00000000000000E+00   0.00000000000000E+00  -1.92147103197289E+00  -1.44735699043350E-01  -2.06620673101624E+00
     -3.44031856453052E-07   8.75000000000000E-01   8.74997933793268E-01   0.00000000000000E+00   0.00000000000000E+00
      1.28146340843349E+00   7.84743322582716E-01   2.06620673101621E+00  -9.17263919626165E-08
      1.00000000000000E-01
      1.50000000000000E+01   1.50000000000000E+01   0.00000000000000E+00   0.00000000000000E+00  -7.47312658151584E-26
      7.47312658151584E-26   0.00000000000000E+00   4.35705999065340E-07   0.00000000000000E+00   3.30763474991302E-06
      0.00000000000000E+00   0.00000000000000E+00  -2.92939733479090E+00  -3.78237415170702E-01  -3.30763474996161E+00
     -3.45168488246513E-07   1.00000000000000E+00   9.99996692365246E-01   0.00000000000000E+00   0.00000000000000E+00
      1.49578620511059E+00   1.81184854485096E+00   3.30763474996155E+00  -9.05375108188270E-08
      1.12500000000000E-01
      1.50000000000000E+01   1.50000000000000E+01   0.00000000000000E+00   0.00000000000000E+00  -7.66434880722525E-26
      7.66434880722525E-26   0.00000000000000E+00   4.35647519214179E-07   0.00000000000000E+00   4.73681964510502E-06
      0.00000000000000E+00   0.00000000000000E+00  -4.05508613362509E+00  -6.81733511505042E-01  -4.73681964513013E+00
     -3.46356297026505E-07   1.12500000000000E+00   1.12499526318035E+00   0.00000000000000E+00   0.00000000000000E+00
      1.68094264710143E+00   3.05587699802862E+00   4.73681964513005E+00  -8.92912221876750E-08
      1.25000000000000E-01
      1.50000000000000E+01   1.50000000000000E+01   0.00000000000000E+00   0.00000000000000E+00  -7.25110706265775E-26
      7.25110706265775E-26   0.00000000000000E+00   4.35585913786759E-07   0.00000000000000E+00   6.26480896603085E-06
      0.00000000000000E+00   0.00000000000000E+00  -5.23821886168038E+00  -1.02659010433017E+00  -6.26480896601056E+00
     -3.47529279948006E-07   1.25000000000000E+00   1.24999373519103E+00   0.00000000000000E+00   0.00000000000000E+00
      1.84530691790576E+00   4.41950204810474E+00   6.26480896601049E+00  -8.80566338387523E-08
      1.37500000000000E-01
      1.50000000000000E+01   1.50000000000000E+01   0.00000000000000E+00   0.00000000000000E+00  -7.44880992199361E-26
      7.44880992199361E-26   0.00000000000000E+00   4.35522783997976E-07   0.00000000000000E+00   7.84487074081059E-06
      0.00000000000000E+00   0.00000000000000E+00  -6.44776131438589E+00  -1.39710942641198E+00  -7.84487074079787E+00
     -3.48664309807850E-07   1.37500000000000E+00   1.37499215512926E+00   0.00000000000000E+00   0.00000000000000E+00
      1.99434627047505E+00   5.85052447032277E+00   7.84487074079782E+00  -8.68584741901256E-08
      1.50000000000000E-01
      1.50000000000000E+01   1.50000000000000E+01   0.00000000000000E+00   0.00000000000000E+00  -7.44459878262029E-26
      7.44459878262029E-26   0.00000000000000E+00   4.35459094199564E-07   0.00000000000000E+00   9.44885603903760E-06
      0.00000000000000E+00   0.00000000000000E+00  -7.66511594148539E+00  -1.78374009759407E+00  -9.44885603907946E+00
     -3.49768105116762E-07   1.50000000000000E+00   1.49999055114396E+00   0.00000000000000E+00   0.00000000000000E+00
      2.13134204536672E+00   7.31751399371273E+00   9.44885603907944E+00  -8.56909890828007E-08
      1.62500000000000E-01
      1.50000000000000E+01   1.50000000000000E+01   0.00000000000000E+00   0.00000000000000E+00  -8.01624883257724E-26
      8.01624883257724E-26   0.00000000000000E+00   4.35395490972679E-07   0.00000000000000E+00   1.10578874698060E-05
      0.00000000000000E+00   0.00000000000000E+00  -8.87790980796269E+00  -2.17997766177733E+00  -1.10578874697400E+01
     -3.50859654575627E-07   1.62500000000000E+00   1.62498894211253E+00   0.00000000000000E+00   0.00000000000000E+00
      2.25837149211368E+00   8.79951597762634E+00   1.10578874697400E+01  -8.45358363970509E-08
      1.75000000000000E-01
      1.50000000000000E+01   1.50000000000000E+01   0.00000000000000E+00   0.00000000000000E+00  -7.50423486146241E-26
      7.50423486146241E-26   0.00000000000000E+00   4.35332432155558E-07   0.00000000000000E+00   1.26585573178589E-05
      0.00000000000000E+00   0.00000000000000E+00  -1.00774720722188E+01  -2.58108524567492E+00  -1.26585573178937E+01
     -3.51950952140638E-07   1.75000000000000E+00   1.74998734144268E+00   0.00000000000000E+00   0.00000000000000E+00
      2.37681501339265E+00   1.02817423045011E+01   1.26585573178937E+01  -8.33814800149202E-08
      1.87500000000000E-01
      1.50000000000000E+01   1.50000000000000E+01   0.00000000000000E+00   0.00000000000000E+00  -7.94574692666193E-26
      7.94574692666193E-26   0.00000000000000E+00   4.35270247793073E-07   0.00000000000000E+00   1.42411516479862E-05
      0.00000000000000E+00   0.00000000000000E+00  -1.12576347077948E+01  -2.98351694020072E+00  -1.42411516479955E+01
     -3.53044326022707E-07   1.87500000000000E+00   1.87498575884835E+00   0.00000000000000E+00   0.00000000000000E+00
      2.48759076310027E+00   1.17535608848952E+01   1.42411516479955E+01  -8.22259217703662E-08
      2.00000000000000E-01
      1.50000000000000E+01   1.50000000000000E+01   0.00000000000000E+00   0.00000000000000E+00  -8.00270182284812E-26
      8.00270182284812E-26   0.00000000000000E+00   4.35209176438944E-07   0.00000000000000E+00   1.57985802502787E-05
      0.00000000000000E+00   0.00000000000000E+00  -1.24140153629959E+01  -3.38456488729247E+00  -1.57985802502884E+01
     -3.54137424561450E-07   2.00000000000000E+00   1.99998420141975E+00   0.00000000000000E+00   0.00000000000000E+00
      2.59137428222534E+00   1.32072059680630E+01   1.57985802502883E+01  -8.10717518774928E-08
      2.12500000000000E-01
      1.50000000000000E+01   1.50000000000000E+01   0.00000000000000E+00   0.00000000000000E+00  -6.60359464854153E-26
      6.60359464854153E-26   0.00000000000000E+00   4.35149387599634E-07   0.00000000000000E+00   1.73257107408943E-05
      0.00000000000000E+00   0.00000000000000E+00  -1.35435715793693E+01  -3.78213916145642E+00  -1.73257107408257E+01
     -3.55226140544360E-07   2.12500000000000E+00   2.12498267428925E+00   0.00000000000000E+00   0.00000000000000E+00
      2.68874843716150E+00   1.46369623036642E+01   1.73257107408257E+01  -7.99232470552738E-08
      2.25000000000000E-01
      1.50000000000000E+01   1.50000000000000E+01   0.00000000000000E+00   0.00000000000000E+00  -7.99891666289557E-26
      7.99891666289557E-26   0.00000000000000E+00   4.35090995065162E-07   0.00000000000000E+00   1.88189778293799E-05
      0.00000000000000E+00   0.00000000000000E+00  -1.46443331034057E+01  -4.17464472593408E+00  -1.88189778293398E+01
     -3.56305407960149E-07   2.25000000000000E+00   2.24998118102217E+00   0.00000000000000E+00   0.00000000000000E+00
      2.78026544163310E+00   1.60387123877067E+01   1.88189778293398E+01  -7.87855871050105E-08
      2.37500000000000E-01
      1.50000000000000E+01   1.50000000000000E+01   0.00000000000000E+00   0.00000000000000E+00  -6.71332913967683E-26
      6.71332913967683E-26   0.00000000000000E+00   4.35034065209878E-07   0.00000000000000E+00   2.02761432266093E-05
      0.00000000000000E+00   0.00000000000000E+00  -1.57152331215379E+01  -4.56091010508663E+00  -2.02761432266245E+01
     -3.57369377177713E-07   2.37500000000000E+00   2.37497972385677E+00   0.00000000000000E+00   0.00000000000000E+00
      2.86645801957588E+00   1.74096852070486E+01   2.02761432266245E+01  -7.76646880321634E-08
      2.50000000000000E-01
      1.50000000000000E+01   1.50000000000000E+01   0.00000000000000E+00   0.00000000000000E+00  -7.02030226586639E-26
      7.02030226586639E-26   0.00000000000000E+00   4.34978623677823E-07   0.00000000000000E+00   2.16961017097530E-05
      0.00000000000000E+00   0.00000000000000E+00  -1.67559729319217E+01  -4.94012877779377E+00  -2.16961017097154E+01
     -3.58412829781374E-07   2.50000000000000E+00   2.49997830389829E+00   0.00000000000000E+00   0.00000000000000E+00
      2.94783294157169E+00   1.87482687681434E+01   2.16961017097151E+01  -7.65657938964482E-08
      2.62500000000000E-01
      1.50000000000000E+01   1.50000000000000E+01   0.00000000000000E+00   0.00000000000000E+00  -7.03235755775217E-26
      7.03235755775217E-26   0.00000000000000E+00   4.34924662996018E-07   0.00000000000000E+00   2.30786673811134E-05
      0.00000000000000E+00   0.00000000000000E+00  -1.77668716485210E+01  -5.31179573260684E+00  -2.30786673811278E+01
     -3.59435174276343E-07   2.62500000000000E+00   2.62497692133261E+00   0.00000000000000E+00   0.00000000000000E+00
      3.02486130077783E+00   2.00538060803497E+01   2.30786673811275E+01  -7.54894887196732E-08
      2.75000000000000E-01
      1.50000000000000E+01   1.50000000000000E+01   0.00000000000000E+00   0.00000000000000E+00  -6.78000633892682E-26
      6.78000633892682E-26   0.00000000000000E+00   4.34872152549025E-07   0.00000000000000E+00   2.44243198625417E-05
      0.00000000000000E+00   0.00000000000000E+00  -1.87486738339431E+01  -5.67564602853935E+00  -2.44243198624824E+01
     -3.60442206317449E-07   2.75000000000000E+00   2.74997557568013E+00   0.00000000000000E+00   0.00000000000000E+00
      3.09796758150262E+00   2.13263522809796E+01   2.44243198624822E+01  -7.44299462315747E-08
      2.87500000000000E-01
      1.50000000000000E+01   1.50000000000000E+01   0.00000000000000E+00   0.00000000000000E+00  -6.81674752769686E-26
      6.81674752769686E-26   0.00000000000000E+00   4.34821048461997E-07   0.00000000000000E+00   2.57339607931801E-05
      0.00000000000000E+00   0.00000000000000E+00  -1.97023611612215E+01  -6.03159963200196E+00  -2.57339607932235E+01
     -3.61441038845505E-07   2.87500000000000E+00   2.87497426603921E+00   0.00000000000000E+00   0.00000000000000E+00
      3.16752303336094E+00   2.25664377598622E+01   2.57339607932232E+01  -7.33800096164937E-08
      3.00000000000000E-01
      1.50000000000000E+01   1.50000000000000E+01   0.00000000000000E+00   0.00000000000000E+00  -7.50948840899663E-26
      7.50948840899663E-26   0.00000000000000E+00   4.34771300451948E-07   0.00000000000000E+00   2.70087245809930E-05
      0.00000000000000E+00   0.00000000000000E+00  -2.06290229095409E+01  -6.37970167146416E+00  -2.70087245810050E+01
     -3.62435832350156E-07   3.00000000000000E+00   2.99997299127543E+00   0.00000000000000E+00   0.00000000000000E+00
      3.23384785207928E+00   2.37748767289254E+01   2.70087245810047E+01  -7.23354681017897E-08
      3.12500000000000E-01
      1.50000000000000E+01   1.50000000000000E+01   0.00000000000000E+00   0.00000000000000E+00  -8.14165447996503E-26
      8.14165447996503E-26   0.00000000000000E+00   4.34722856692621E-07   0.00000000000000E+00   2.82498305423839E-05
      0.00000000000000E+00   0.00000000000000E+00  -2.15297650229006E+01  -6.72006551952894E+00  -2.82498305424296E+01
     -3.63428068735469E-07   3.12500000000000E+00   3.12497175016945E+00   0.00000000000000E+00   0.00000000000000E+00
      3.29721678067075E+00   2.49526137617587E+01   2.82498305424294E+01  -7.12947879571517E-08
      3.25000000000000E-01
      1.50000000000000E+01   1.50000000000000E+01   0.00000000000000E+00   0.00000000000000E+00  -6.77788090423023E-26
      6.77788090423023E-26   0.00000000000000E+00   4.34675667148219E-07   0.00000000000000E+00   2.94584827158433E-05
      0.00000000000000E+00   0.00000000000000E+00  -2.24056485771582E+01  -7.05283413868755E+00  -2.94584827158458E+01
     -3.64417845092011E-07   3.25000000000000E+00   3.24997054151728E+00   0.00000000000000E+00   0.00000000000000E+00
      3.35786523987032E+00   2.61006174759752E+01   2.94584827158455E+01  -7.02578220562069E-08
      3.37500000000000E-01
      1.50000000000000E+01   1.50000000000000E+01   0.00000000000000E+00   0.00000000000000E+00  -7.31502368987403E-26
      7.31502368987403E-26   0.00000000000000E+00   4.34629685226260E-07   0.00000000000000E+00   3.06358191772470E-05
      0.00000000000000E+00   0.00000000000000E+00  -2.32576597789488E+01  -7.37815939830760E+00  -3.06358191772564E+01
     -3.65404572636131E-07   3.37500000000000E+00   3.37496936418082E+00   0.00000000000000E+00   0.00000000000000E+00
      3.41599582394680E+00   2.72198233533096E+01   3.06358191772564E+01  -6.92251125901289E-08
      3.50000000000000E-01
      1.50000000000000E+01   1.50000000000000E+01   0.00000000000000E+00   0.00000000000000E+00  -7.33093378293342E-26
      7.33093378293342E-26   0.00000000000000E+00   4.34584868899262E-07   0.00000000000000E+00   3.17828783890467E-05
      0.00000000000000E+00   0.00000000000000E+00  -2.40866901267645E+01  -7.69618826233606E+00  -3.17828783891006E+01
     -3.66387203020228E-07   3.50000000000000E+00   3.49996821712162E+00   0.00000000000000E+00   0.00000000000000E+00
      3.47178348550379E+00   2.83110949035966E+01   3.17828783891004E+01  -6.81976658790342E-08
      3.62500000000000E-01
      1.50000000000000E+01   1.50000000000000E+01   0.00000000000000E+00   0.00000000000000E+00  -6.22949322398647E-26
      6.22949322398647E-26   0.00000000000000E+00   4.34541181779555E-07   0.00000000000000E+00   3.29005687548412E-05
      0.00000000000000E+00   0.00000000000000E+00  -2.48935178897773E+01  -8.00705086509690E+00  -3.29005687548742E+01
     -3.67364186846432E-07   3.62500000000000E+00   3.62496709943126E+00   0.00000000000000E+00   0.00000000000000E+00
      3.52537903525455E+00   2.93751897196193E+01   3.29005687548739E+01  -6.71769949331220E-08
      3.75000000000000E-01
      1.50000000000000E+01   1.50000000000000E+01   0.00000000000000E+00   0.00000000000000E+00  -6.33591496760877E-26
      6.33591496760877E-26   0.00000000000000E+00   4.34498593966031E-07   0.00000000000000E+00   3.39896443122082E-05
      0.00000000000000E+00   0.00000000000000E+00  -2.56787936976996E+01  -8.31085061449671E+00  -3.39896443121963E+01
     -3.68333258631534E-07   3.75000000000000E+00   3.74996601035569E+00   0.00000000000000E+00   0.00000000000000E+00
      3.57691192444640E+00   3.04127323877499E+01   3.39896443121963E+01  -6.61653353344981E-08
      3.87500000000000E-01
      1.50000000000000E+01   1.50000000000000E+01   0.00000000000000E+00   0.00000000000000E+00  -5.79434770125979E-26
      5.79434770125979E-26   0.00000000000000E+00   4.34457081411950E-07   0.00000000000000E+00   3.50507180031660E-05
      0.00000000000000E+00   0.00000000000000E+00  -2.64430535890194E+01  -8.60766441416183E+00  -3.50507180031812E+01
     -3.69291145591581E-07   3.87500000000000E+00   3.87496494928199E+00   0.00000000000000E+00   0.00000000000000E+00
      3.62649417966635E+00   3.14242238235149E+01   3.50507180031812E+01  -6.51659358203685E-08
      4.00000000000000E-01
      1.50000000000000E+01   1.50000000000000E+01   0.00000000000000E+00   0.00000000000000E+00  -7.82398320277147E-26
      7.82398320277147E-26   0.00000000000000E+00   4.34416618872275E-07   0.00000000000000E+00   3.60844373769218E-05
      0.00000000000000E+00   0.00000000000000E+00  -2.71868512080184E+01  -8.89758616890854E+00  -3.60844373769269E+01
     -3.70233652652197E-07   4.00000000000000E+00   3.99996391556262E+00   0.00000000000000E+00   0.00000000000000E+00
      3.67423082331597E+00   3.24102065536108E+01   3.60844373769268E+01  -6.41829662200763E-08
      4.12500000000000E-01
      1.50000000000000E+01   1.50000000000000E+01   0.00000000000000E+00   0.00000000000000E+00  -7.36793514330562E-26
      7.36793514330562E-26   0.00000000000000E+00   4.34377158632403E-07   0.00000000000000E+00   3.70920198351001E-05
      0.00000000000000E+00   0.00000000000000E+00  -2.79111522732819E+01  -9.18086756175393E+00  -3.70920198350359E+01
     -3.71157422738056E-07   4.12500000000000E+00   4.12496290798016E+00   0.00000000000000E+00   0.00000000000000E+00
      3.72024450462819E+00   3.33717753304077E+01   3.70920198350359E+01  -6.32197358943473E-08
      4.25000000000000E-01
      1.50000000000000E+01   1.50000000000000E+01   0.00000000000000E+00   0.00000000000000E+00  -7.94939069697021E-26
      7.94939069697021E-26   0.00000000000000E+00   4.34338609096990E-07   0.00000000000000E+00   3.80757946050566E-05
      0.00000000000000E+00   0.00000000000000E+00  -2.86177265898210E+01  -9.45806801522064E+00  -3.80757946050416E+01
     -3.72063635995769E-07   4.25000000000000E+00   4.24996192420539E+00   0.00000000000000E+00   0.00000000000000E+00
      3.76469766013057E+00   3.43110969449111E+01   3.80757946050416E+01  -6.22749731012185E-08
      4.37500000000000E-01
      1.50000000000000E+01   1.50000000000000E+01   0.00000000000000E+00   0.00000000000000E+00  -8.07321324566569E-26
      8.07321324566569E-26   0.00000000000000E+00   4.34300859002476E-07   0.00000000000000E+00   3.90385958600721E-05
      0.00000000000000E+00   0.00000000000000E+00  -2.93086917487147E+01  -9.72990411134445E+00  -3.90385958600591E+01
     -3.72957951748619E-07   4.37500000000000E+00   4.37496096140415E+00   0.00000000000000E+00   0.00000000000000E+00
      3.80776481071545E+00   3.52308310493437E+01   3.90385958600592E+01  -6.13429072538569E-08
      4.50000000000000E-01
      1.50000000000000E+01   1.50000000000000E+01   0.00000000000000E+00   0.00000000000000E+00  -6.65188616202405E-26
      6.65188616202405E-26   0.00000000000000E+00   4.34263819440389E-07   0.00000000000000E+00   3.99826987247986E-05
      0.00000000000000E+00   0.00000000000000E+00  -2.99857363739765E+01  -9.99696235076640E+00  -3.99826987247429E+01
     -3.73845461671609E-07   4.50000000000000E+00   4.49996001730127E+00   0.00000000000000E+00   0.00000000000000E+00
      3.84958795712805E+00   3.61331107676148E+01   3.99826987247429E+01  -6.04183577687814E-08
      4.62500000000000E-01
      1.50000000000000E+01   1.50000000000000E+01   0.00000000000000E+00   0.00000000000000E+00  -7.95558642183293E-26
      7.95558642183293E-26   0.00000000000000E+00   4.34227426974644E-07   0.00000000000000E+00   4.09097341148902E-05
      0.00000000000000E+00   0.00000000000000E+00  -3.06500699598466E+01  -1.02596641550529E+01  -4.09097341148995E+01
     -3.74728758366440E-07   4.62500000000000E+00   4.62495909026590E+00   0.00000000000000E+00   0.00000000000000E+00
      3.89027495116037E+00   3.70194591637391E+01   4.09097341148995E+01  -5.94986686082022E-08
      4.75000000000000E-01
      1.50000000000000E+01   1.50000000000000E+01   0.00000000000000E+00   0.00000000000000E+00  -7.26662073684929E-26
      7.26662073684929E-26   0.00000000000000E+00   4.34191631138564E-07   0.00000000000000E+00   4.18210025375898E-05
      0.00000000000000E+00   0.00000000000000E+00  -3.13026580104875E+01  -1.05183445270760E+01  -4.18210025375635E+01
     -3.75608942185299E-07   4.75000000000000E+00   4.74995817899746E+00   0.00000000000000E+00   0.00000000000000E+00
      3.92991437028813E+00   3.78910881672754E+01   4.18210025375635E+01  -5.85826889532655E-08
      4.87500000000000E-01
      1.50000000000000E+01   1.50000000000000E+01   0.00000000000000E+00   0.00000000000000E+00  -8.49221276104634E-26
      8.49221276104634E-26   0.00000000000000E+00   4.34156387544187E-07   0.00000000000000E+00   4.27176483505861E-05
      0.00000000000000E+00   0.00000000000000E+00  -3.19443502805629E+01  -1.07732980700373E+01  -4.27176483506002E+01
     -3.76486509485569E-07   4.87500000000000E+00   4.87495728235166E+00   0.00000000000000E+00   0.00000000000000E+00
      3.96858385799243E+00   3.87490644926071E+01   4.27176483505996E+01  -5.76698780586182E-08
      5.00000000000000E-01
      1.50000000000000E+01   1.50000000000000E+01   0.00000000000000E+00   0.00000000000000E+00  -7.87000123730071E-26
      7.87000123730071E-26   0.00000000000000E+00   4.34121655574876E-07   0.00000000000000E+00   4.36007184469425E-05
      0.00000000000000E+00   0.00000000000000E+00  -3.25759235873211E+01  -1.10247948595923E+01  -4.36007184469134E+01
     -3.77361718933865E-07   5.00000000000000E+00   4.99995639928155E+00   0.00000000000000E+00   0.00000000000000E+00
      4.00635321923406E+00   3.95943652276790E+01   4.36007184469131E+01  -5.67599366410106E-08
      5.12500000000000E-01
      1.50000000000000E+01   1.50000000000000E+01   0.00000000000000E+00   0.00000000000000E+00  -8.07890457837268E-26
      8.07890457837268E-26   0.00000000000000E+00   4.34087397717898E-07   0.00000000000000E+00   4.44711793658644E-05
      0.00000000000000E+00   0.00000000000000E+00  -3.31980943315759E+01  -1.12730850342457E+01  -4.44711793658216E+01
     -3.78234717954237E-07   5.12500000000000E+00   5.12495552882062E+00   0.00000000000000E+00   0.00000000000000E+00
      4.04328568980809E+00   4.04278936760133E+01   4.44711793658214E+01  -5.58526797636622E-08
      5.25000000000000E-01
      1.50000000000000E+01   1.50000000000000E+01   0.00000000000000E+00   0.00000000000000E+00  -7.41448393260040E-26
      7.41448393260040E-26   0.00000000000000E+00   4.34053579387450E-07   0.00000000000000E+00   4.53299218278998E-05
      0.00000000000000E+00   0.00000000000000E+00  -3.38115220475508E+01  -1.15183997803179E+01  -4.53299218278686E+01
     -3.79105591339461E-07   5.25000000000000E+00   5.24995467007819E+00   0.00000000000000E+00   0.00000000000000E+00
      4.07943886376296E+00   4.12504829641054E+01   4.53299218278684E+01  -5.49479880479878E-08
      5.37500000000000E-01
      1.50000000000000E+01   1.50000000000000E+01   0.00000000000000E+00   0.00000000000000E+00  -6.94380833222431E-26
      6.94380833222431E-26   0.00000000000000E+00   4.34020168954621E-07   0.00000000000000E+00   4.61777600285617E-05
      0.00000000000000E+00   0.00000000000000E+00  -3.44168092201255E+01  -1.17609508084537E+01  -4.61777600285792E+01
     -3.79974387817312E-07   5.37500000000000E+00   5.37495382223996E+00   0.00000000000000E+00   0.00000000000000E+00
      4.11486533923139E+00   4.20628946893475E+01   4.61777600285789E+01  -5.40457811373107E-08
      5.50000000000000E-01
      1.50000000000000E+01   1.50000000000000E+01   0.00000000000000E+00   0.00000000000000E+00  -8.28142476334284E-26
      8.28142476334284E-26   0.00000000000000E+00   4.33987137863668E-07   0.00000000000000E+00   4.70154289562781E-05
      0.00000000000000E+00   0.00000000000000E+00  -3.50144995780750E+01  -1.20009293782293E+01  -4.70154289563043E+01
     -3.80841136141753E-07   5.50000000000000E+00   5.49995298457103E+00   0.00000000000000E+00   0.00000000000000E+00
      4.14961285959600E+00   4.28658160967079E+01   4.70154289563039E+01  -5.31460017219146E-08
      5.62500000000000E-01
      1.50000000000000E+01   1.50000000000000E+01   0.00000000000000E+00   0.00000000000000E+00  -6.10856713258204E-26
      6.10856713258204E-26   0.00000000000000E+00   4.33954460710194E-07   0.00000000000000E+00   4.78435828240510E-05
      0.00000000000000E+00   0.00000000000000E+00  -3.56050771006372E+01  -1.22385057234457E+01  -4.78435828240829E+01
     -3.81705848196543E-07   5.62500000000000E+00   5.62495215641718E+00   0.00000000000000E+00   0.00000000000000E+00
      4.18372418343511E+00   4.36598586406474E+01   4.78435828240825E+01  -5.22486125136519E-08
      5.75000000000000E-01
      1.50000000000000E+01   1.50000000000000E+01   0.00000000000000E+00   0.00000000000000E+00  -7.23657006010113E-26
      7.23657006010113E-26   0.00000000000000E+00   4.33922115226770E-07   0.00000000000000E+00   4.86627958167057E-05
      0.00000000000000E+00   0.00000000000000E+00  -3.61889666989140E+01  -1.24738291178528E+01  -4.86627958167668E+01
     -3.82568513142001E-07   5.75000000000000E+00   5.74995133720417E+00   0.00000000000000E+00   0.00000000000000E+00
      4.21723714315391E+00   4.44455586736123E+01   4.86627958167662E+01  -5.13536020847685E-08
      5.87500000000000E-01
      1.50000000000000E+01   1.50000000000000E+01   0.00000000000000E+00   0.00000000000000E+00  -6.67243260891022E-26
      6.67243260891022E-26   0.00000000000000E+00   4.33890082215353E-07   0.00000000000000E+00   4.94735640620621E-05
      0.00000000000000E+00   0.00000000000000E+00  -3.67665358356367E+01  -1.27070282264428E+01  -4.94735640620795E+01
     -3.83429094132135E-07   5.87500000000000E+00   5.87495052643595E+00   0.00000000000000E+00   0.00000000000000E+00
      4.25018494619745E+00   4.52233791158818E+01   4.94735640620792E+01  -5.04609880832185E-08
      6.00000000000000E-01
      1.50000000000000E+01   1.50000000000000E+01   0.00000000000000E+00   0.00000000000000E+00  -6.94292711648541E-26