DF-ISE text

Info {
  version   = 1.0
  type      = xyplot
  datasets  = [
    "time"
    "Gate OuterVoltage" "Gate InnerVoltage" "Gate QuasiFermiPotential" "Gate DisplacementCurrent" "Gate eCurrent"
    "Gate hCurrent" "Gate TotalCurrent" "Gate Charge" "Emitter OuterVoltage" "Emitter InnerVoltage"
    "Emitter QuasiFermiPotential" "Emitter DisplacementCurrent" "Emitter eCurrent" "Emitter hCurrent" "Emitter TotalCurrent"
    "Emitter Charge" "Emitter Temperature" "Emitter lHeatFlux" "Collector OuterVoltage" "Collector InnerVoltage"
    "Collector QuasiFermiPotential" "Collector DisplacementCurrent" "Collector eCurrent" "Collector hCurrent" "Collector TotalCurrent"
    "Collector Charge" "Collector Temperature" "Collector lHeatFlux" "Tmin" "Tave"
    "Tmax" ]
  functions = [
    Time
    OuterVoltage InnerVoltage QuasiFermiPotential DisplacementCurrent eCurrent
    hCurrent TotalCurrent Charge OuterVoltage InnerVoltage
    QuasiFermiPotential DisplacementCurrent eCurrent hCurrent TotalCurrent
    Charge Temperature lHeatFlux OuterVoltage InnerVoltage
    QuasiFermiPotential DisplacementCurrent eCurrent hCurrent TotalCurrent
    Charge Temperature lHeatFlux MinTemperature AveTemperature
    MaxTemperature ]
}

Data {
      0.00000000000000E+00
      1.50000000000000E+01   1.50000000000000E+01   0.00000000000000E+00   0.00000000000000E+00  -6.47970298561343E-26
      6.47970298561343E-26   0.00000000000000E+00   4.35857536629048E-07   0.00000000000000E+00   0.00000000000000E+00
      0.00000000000000E+00   0.00000000000000E+00   6.14341848075552E-15  -3.77273350743815E-17   6.10569114568114E-15
     -3.41542206631767E-07   3.00000000000000E+02   0.00000000000000E+00   0.00000000000000E+00   0.00000000000000E+00
      0.00000000000000E+00   0.00000000000000E+00  -6.14341849597134E-15   3.77273502883894E-17  -6.10569114568295E-15
     -9.43153299972774E-08   3.00000000000000E+02   0.00000000000000E+00   3.00000000000000E+02   2.99999999999966E+02
      3.00000000000000E+02
      1.25000000000000E-02
      1.50000000000000E+01   1.50000000000000E+01   0.00000000000000E+00   0.00000000000000E+00  -6.61360686364253E-24
      6.61360686364253E-24   0.00000000000000E+00   4.35850039533807E-07   0.00000000000000E+00   1.45369705872496E-07
      0.00000000000000E+00   0.00000000000000E+00  -1.45369703840695E-01  -2.05435480928333E-09  -1.45369705895050E-01
     -3.41743515335519E-07   3.00000000000000E+02   3.35298656343343E-02   1.25000000000000E-01   1.24999854630294E-01
      0.00000000000000E+00   0.00000000000000E+00   1.45369633123362E-01   7.27716853185035E-08   1.45369705895047E-01
     -9.41065241982870E-08   3.00000000000000E+02  -2.33140959353905E-02   2.99999937855148E+02   2.99999996652670E+02
      3.00000067134767E+02
      2.50000000000000E-02
      1.50000000000000E+01   1.50000000000000E+01   0.00000000000000E+00   0.00000000000000E+00  -1.30711229521432E-23
      1.30711229521432E-23   0.00000000000000E+00   4.35842214451784E-07   0.00000000000000E+00   2.97053763989404E-07
      0.00000000000000E+00   0.00000000000000E+00  -2.97053754760355E-01  -9.22374137850476E-09  -2.97053763984097E-01
     -3.41952620699178E-07   3.00000000000000E+02   6.34361087557472E-02   2.50000000000000E-01   2.49999702946236E-01
      0.00000000000000E+00   0.00000000000000E+00   2.97053077176678E-01   6.86807417704525E-07   2.97053763984095E-01
     -9.38895937526059E-08   3.00000000000000E+02  -7.96125210179431E-02   2.99999877637188E+02   2.99999998346830E+02
      3.00000206951818E+02
      3.75000000000000E-02
      1.50000000000000E+01   1.50000000000000E+01   0.00000000000000E+00   0.00000000000000E+00  -1.93421469594801E-23
      1.93421469594801E-23   0.00000000000000E+00   4.35834026551964E-07   0.00000000000000E+00   4.55721191496097E-07
      0.00000000000000E+00   0.00000000000000E+00  -4.55720866476582E-01  -3.25064683592447E-07  -4.55721191541265E-01
     -3.42170293197160E-07   3.00000000000000E+02   8.92771018166085E-02   3.75000000000000E-01   3.74999544278808E-01
      0.00000000000000E+00   0.00000000000000E+00   4.55713653708013E-01   7.53783324669812E-06   4.55721191541260E-01
     -9.36637333548044E-08   3.00000000000000E+02  -1.70932974426622E-01   2.99999819621076E+02   3.00000005414557E+02
      3.00000464629736E+02
      5.00000000000000E-02
      1.50000000000000E+01   1.50000000000000E+01   0.00000000000000E+00   0.00000000000000E+00  -2.56418408785378E-23
      2.56418408785378E-23   0.00000000000000E+00   4.35825388620877E-07   0.00000000000000E+00   6.23070788308542E-07
      0.00000000000000E+00   0.00000000000000E+00  -6.23053237396229E-01  -1.75509159341538E-05  -6.23070788312163E-01
     -3.42398628545875E-07   3.00000000000000E+02   1.10622574897201E-01   5.00000000000000E-01   4.99999376929212E-01
      0.00000000000000E+00   0.00000000000000E+00   6.22901555059244E-01   1.69233252914457E-04   6.23070788312158E-01
     -9.34267600750018E-08   3.00000000000000E+02  -3.00004454424149E-01   2.99999763852694E+02   3.00000018277846E+02
      3.00000847816873E+02
      6.25000000000000E-02
      1.50000000000000E+01   1.50000000000000E+01   0.00000000000000E+00   0.00000000000000E+00  -3.21627910511132E-23
      3.21627910511132E-23   0.00000000000000E+00   4.35815675033269E-07   0.00000000000000E+00   8.12029797758221E-07
      0.00000000000000E+00   0.00000000000000E+00  -8.11153051323124E-01  -8.76746472582893E-04  -8.12029797795707E-01
     -3.42653157248613E-07   3.00000000000000E+02   1.26772668196601E-01   6.25000000000000E-01   6.24999187970201E-01
      0.00000000000000E+00   0.00000000000000E+00   8.05304604742712E-01   6.72519305299193E-03   8.12029797795704E-01
     -9.31625177846553E-08   3.00000000000000E+02  -4.76418433347516E-01   2.99999708014799E+02   3.00000039001750E+02
      3.00001371057245E+02
      7.50000000000000E-02
      1.50000000000000E+01   1.50000000000000E+01   0.00000000000000E+00   0.00000000000000E+00  -4.30274565535607E-23
      4.30274565535607E-23   0.00000000000000E+00   4.35797347662895E-07   0.00000000000000E+00   1.18909291340808E-06
      0.00000000000000E+00   0.00000000000000E+00  -1.16581672852159E+00  -2.32761849027247E-02  -1.18909291342431E+00
     -3.43114794835911E-07   3.00000000000000E+02   1.16792176225622E-01   7.50000000000000E-01   7.49998810907086E-01
      0.00000000000000E+00   0.00000000000000E+00   1.03401117906244E+00   1.55081734361858E-01   1.18909291342430E+00
     -9.26825528269826E-08   3.00000000000000E+02  -8.12067794468098E-01   2.99999623389111E+02   3.00000102144008E+02
      3.00002065959757E+02
      8.75000000000000E-02
      1.50000000000000E+01   1.50000000000000E+01   0.00000000000000E+00   0.00000000000000E+00  -5.98697640124076E-23
      5.98697640124076E-23   0.00000000000000E+00   4.35758248628302E-07   0.00000000000000E+00   2.06620806883312E-06
      0.00000000000000E+00   0.00000000000000E+00  -1.92146944848456E+00  -1.44738620306125E-01  -2.06620806879068E+00
     -3.44031855335941E-07   3.00000000000000E+02  -4.84477569263199E-02   8.75000000000000E-01   8.74997933791930E-01
      0.00000000000000E+00   0.00000000000000E+00   1.28145884837981E+00   7.84749220410845E-01   2.06620806879065E+00
     -9.17263932923605E-08   3.00000000000000E+02  -1.53971945529056E+00   2.99999537578013E+02   3.00000295227153E+02
      3.00002823834454E+02
      1.00000000000000E-01
      1.50000000000000E+01   1.50000000000000E+01   0.00000000000000E+00   0.00000000000000E+00  -6.82598264906943E-23
      6.82598264906943E-23   0.00000000000000E+00   4.35705999718892E-07   0.00000000000000E+00   3.30763358453846E-06
      0.00000000000000E+00   0.00000000000000E+00  -2.92939292008086E+00  -3.78240664466043E-01  -3.30763358454690E+00
     -3.45168482250230E-07   3.00000000000000E+02  -4.91791402156522E-01   1.00000000000000E+00   9.99996692366418E-01
      0.00000000000000E+00   0.00000000000000E+00   1.49578302833317E+00   1.81185055621367E+00   3.30763358454685E+00
     -9.05375174686616E-08   3.00000000000000E+02  -2.59202754153936E+00   2.99999601036031E+02   3.00000618969338E+02
      3.00003482184812E+02
      1.12500000000000E-01
      1.50000000000000E+01   1.50000000000000E+01   0.00000000000000E+00   0.00000000000000E+00  -8.82877269190389E-23
      8.82877269190389E-23   0.00000000000000E+00   4.35647520750426E-07   0.00000000000000E+00   4.73680332782028E-06
      0.00000000000000E+00   0.00000000000000E+00  -4.05506994199786E+00  -6.81733385848446E-01  -4.73680332784630E+00
     -3.46356283202173E-07   3.00000000000000E+02  -1.25353548568287E+00   1.12500000000000E+00   1.12499526319667E+00
      0.00000000000000E+00   0.00000000000000E+00   1.68093967461229E+00   3.05586365323393E+00   4.73680332784622E+00
     -8.92912375482523E-08   3.00000000000000E+02  -3.85779012000954E+00   2.99999900955722E+02   3.00001056463453E+02
      3.00004051435268E+02
      1.25000000000000E-01
      1.50000000000000E+01   1.50000000000000E+01   0.00000000000000E+00   0.00000000000000E+00  -1.13815837143312E-22
      1.13815837143312E-22   0.00000000000000E+00   4.35585916740290E-07   0.00000000000000E+00   6.26475718094809E-06
      0.00000000000000E+00   0.00000000000000E+00  -5.23817624115857E+00  -1.02658093985460E+00  -6.26475718101317E+00
     -3.47529256800681E-07   3.00000000000000E+02  -2.34874472567425E+00   1.25000000000000E+00   1.24999373524281E+00
      0.00000000000000E+00   0.00000000000000E+00   1.84530230221033E+00   4.41945487880277E+00   6.26475718101310E+00
     -8.80566599396072E-08   3.00000000000000E+02  -5.27549290706101E+00   3.00000183506644E+02   3.00001599110663E+02
      3.00004578478684E+02
      1.37500000000000E-01
      1.50000000000000E+01   1.50000000000000E+01   0.00000000000000E+00   0.00000000000000E+00  -1.50217338659955E-22
      1.50217338659955E-22   0.00000000000000E+00   4.35522789006987E-07   0.00000000000000E+00   7.84475463509193E-06
      0.00000000000000E+00   0.00000000000000E+00  -6.44767135453860E+00  -1.39708328051336E+00  -7.84475463505196E+00
     -3.48664276630198E-07   3.00000000000000E+02  -3.78317132082586E+00   1.37500000000000E+00   1.37499215524536E+00
      0.00000000000000E+00   0.00000000000000E+00   1.99433773103043E+00   5.85041690402145E+00   7.84475463505188E+00
     -8.68585123767879E-08   3.00000000000000E+02  -6.80898591401484E+00   3.00000240143077E+02   3.00002240612964E+02
      3.00005078910285E+02
      1.50000000000000E-01
      1.50000000000000E+01   1.50000000000000E+01   0.00000000000000E+00   0.00000000000000E+00  -1.97304611719881E-22
      1.97304611719881E-22   0.00000000000000E+00   4.35459101996337E-07   0.00000000000000E+00   9.44863835400604E-06
      0.00000000000000E+00   0.00000000000000E+00  -7.66495164593519E+00  -1.78368670819221E+00  -9.44863835412740E+00
     -3.49768060651276E-07   3.00000000000000E+02  -5.55657487799177E+00   1.50000000000000E+00   1.49999055136165E+00
      0.00000000000000E+00   0.00000000000000E+00   2.13132689757903E+00   7.31731145654829E+00   9.44863835412732E+00
     -8.56910413450603E-08   3.00000000000000E+02  -8.43393748922952E+00   3.00000299833571E+02   3.00002975203610E+02
      3.00005545058446E+02
      1.62500000000000E-01
      1.50000000000000E+01   1.50000000000000E+01   0.00000000000000E+00   0.00000000000000E+00  -2.56210094660132E-22
      2.56210094660132E-22   0.00000000000000E+00   4.35395502364482E-07   0.00000000000000E+00   1.10575232179440E-05
      0.00000000000000E+00   0.00000000000000E+00  -8.87763866610375E+00  -2.17988455187483E+00  -1.10575232179786E+01
     -3.50859596651723E-07   3.00000000000000E+02  -7.66423111646615E+00   1.62500000000000E+00   1.62498894247678E+00
      0.00000000000000E+00   0.00000000000000E+00   2.25834677479414E+00   8.79917644318442E+00   1.10575232179786E+01
     -8.45359057127588E-08   3.00000000000000E+02  -1.01321964981093E+01   3.00000361849869E+02   3.00003797210793E+02
      3.00006023554085E+02
      1.75000000000000E-01
      1.50000000000000E+01   1.50000000000000E+01   0.00000000000000E+00   0.00000000000000E+00  -3.32884540762572E-22
      3.32884540762572E-22   0.00000000000000E+00   4.35332447999638E-07   0.00000000000000E+00   1.26579948873760E-05
      0.00000000000000E+00   0.00000000000000E+00  -1.00770568851493E+01  -2.58093800220185E+00  -1.26579948873511E+01
     -3.51950878577513E-07   3.00000000000000E+02  -1.00981181685535E+01   1.75000000000000E+00   1.74998734200512E+00
      0.00000000000000E+00   0.00000000000000E+00   2.37677749555191E+00   1.02812173917992E+01   1.26579948873511E+01
     -8.33815694221239E-08   3.00000000000000E+02  -1.18894640119855E+01   3.00000425809212E+02   3.00004701048039E+02
      3.00008122402496E+02
      1.87500000000000E-01
      1.50000000000000E+01   1.50000000000000E+01   0.00000000000000E+00   0.00000000000000E+00  -4.41738030820515E-22
      4.41738030820515E-22   0.00000000000000E+00   4.35270268971613E-07   0.00000000000000E+00   1.42403340120210E-05
      0.00000000000000E+00   0.00000000000000E+00  -1.12570344943796E+01  -2.98329951763393E+00  -1.42403340120135E+01
     -3.53044235054535E-07   3.00000000000000E+02  -1.28479491225965E+01   1.87500000000000E+00   1.87498575966599E+00
      0.00000000000000E+00   0.00000000000000E+00   2.48753704477375E+00   1.17527969672396E+01   1.42403340120134E+01
     -8.22260339170781E-08   3.00000000000000E+02  -1.36942104031503E+01   3.00000491338001E+02   3.00005681316396E+02
      3.00010587643598E+02
      2.00000000000000E-01
      1.50000000000000E+01   1.50000000000000E+01   0.00000000000000E+00   0.00000000000000E+00  -5.66246240961524E-22
      5.66246240961524E-22   0.00000000000000E+00   4.35209203836147E-07   0.00000000000000E+00   1.57974461658488E-05
      0.00000000000000E+00   0.00000000000000E+00  -1.24131862610923E+01  -3.38425990480133E+00  -1.57974461658936E+01
     -3.54137314797904E-07   3.00000000000000E+02  -1.59019035923525E+01   2.00000000000000E+00   1.99998420255383E+00
      0.00000000000000E+00   0.00000000000000E+00   2.59130096242218E+00   1.32061452034714E+01   1.57974461658936E+01
     -8.10718890382411E-08   3.00000000000000E+02  -1.55370076863010E+01   3.00000558028109E+02   3.00006732863924E+02
      3.00013372213559E+02
      2.12500000000000E-01
      1.50000000000000E+01   1.50000000000000E+01   0.00000000000000E+00   0.00000000000000E+00  -7.04151501863701E-22
      7.04151501863701E-22   0.00000000000000E+00   4.35149422081389E-07   0.00000000000000E+00   1.73241959154960E-05
      0.00000000000000E+00   0.00000000000000E+00  -1.35424677008506E+01  -3.78172821466454E+00  -1.73241959155151E+01
     -3.55226010913976E-07   3.00000000000000E+02  -1.92471989935645E+01   2.12500000000000E+00   2.12498267580409E+00
      0.00000000000000E+00   0.00000000000000E+00   2.68865222918791E+00   1.46355436863272E+01   1.73241959155151E+01
     -7.99234111674129E-08   3.00000000000000E+02  -1.74101134068885E+01   3.00000625684012E+02   3.00007850830444E+02
      3.00016489223288E+02
      2.25000000000000E-01
      1.50000000000000E+01   1.50000000000000E+01   0.00000000000000E+00   0.00000000000000E+00  -8.55080874877997E-22
      8.55080874877997E-22   0.00000000000000E+00   4.35091037462458E-07   0.00000000000000E+00   1.88170159888308E-05
      0.00000000000000E+00   0.00000000000000E+00  -1.46429072916709E+01  -4.17410869716597E+00  -1.88170159888369E+01
     -3.56305257740476E-07   3.00000000000000E+02  -2.28706314963139E+01   2.25000000000000E+00   2.24998118298402E+00
      0.00000000000000E+00   0.00000000000000E+00   2.78014320948387E+00   1.60368727793529E+01   1.88170159888368E+01
     -7.87857797219818E-08   3.00000000000000E+02  -1.93072371952076E+01   3.00000694214826E+02   3.00009030705014E+02
      3.00019914372698E+02
      2.37500000000000E-01
      1.50000000000000E+01   1.50000000000000E+01   0.00000000000000E+00   0.00000000000000E+00  -1.01494267815105E-21
      1.01494267815105E-21   0.00000000000000E+00   4.35034116307223E-07   0.00000000000000E+00   2.02736670011280E-05
      0.00000000000000E+00   0.00000000000000E+00  -1.57134375634418E+01  -4.56022943770217E+00  -2.02736670011440E+01
     -3.57369206111993E-07   3.00000000000000E+02  -2.67591090838295E+01   2.37500000000000E+00   2.37497972633301E+00
      0.00000000000000E+00   0.00000000000000E+00   2.86630676485895E+00   1.74073602362849E+01   2.02736670011439E+01
     -7.76649101952297E-08   3.00000000000000E+02  -2.12233984825761E+01   3.00000763236591E+02   3.00010268380423E+02
      3.00023636438857E+02
      2.50000000000000E-01
      1.50000000000000E+01   1.50000000000000E+01   0.00000000000000E+00   0.00000000000000E+00  -1.18554599490621E-21
      1.18554599490621E-21   0.00000000000000E+00   4.34978684206858E-07   0.00000000000000E+00   2.16930432961201E-05
      0.00000000000000E+00   0.00000000000000E+00  -1.67537596037716E+01  -4.93928369238518E+00  -2.16930432961568E+01
     -3.58412637991274E-07   3.00000000000000E+02  -3.09001326892987E+01   2.50000000000000E+00   2.49997830695670E+00
      0.00000000000000E+00   0.00000000000000E+00   2.94764977364898E+00   1.87453935225075E+01   2.16930432961565E+01
     -7.65660462155846E-08   3.00000000000000E+02  -2.31547786094232E+01   3.00000832816602E+02   3.00011560165088E+02
      3.00027644072769E+02
      2.62500000000000E-01
      1.50000000000000E+01   1.50000000000000E+01   0.00000000000000E+00   0.00000000000000E+00  -1.36505138362553E-21
      1.36505138362553E-21   0.00000000000000E+00   4.34924733633186E-07   0.00000000000000E+00   2.30749589986044E-05
      0.00000000000000E+00   0.00000000000000E+00  -1.77641926157098E+01  -5.31076638291920E+00  -2.30749589986290E+01
     -3.59434961394718E-07   3.00000000000000E+02  -3.52821285286908E+01   2.62500000000000E+00   2.62497692504100E+00
      0.00000000000000E+00   0.00000000000000E+00   3.02464341087792E+00   2.00503155877508E+01   2.30749589986288E+01
     -7.54897722384674E-08   3.00000000000000E+02  -2.50985262385344E+01   3.00000902958572E+02   3.00012902749429E+02
      3.00031925996112E+02
      2.75000000000000E-01
      1.50000000000000E+01   1.50000000000000E+01   0.00000000000000E+00   0.00000000000000E+00  -1.55204290669262E-21
      1.55204290669262E-21   0.00000000000000E+00   4.34872233915169E-07   0.00000000000000E+00   2.44198940714055E-05
      0.00000000000000E+00   0.00000000000000E+00  -1.87454814627677E+01  -5.67441260865671E+00  -2.44198940714244E+01
     -3.60441970784746E-07   3.00000000000000E+02  -3.98944969576065E+01   2.75000000000000E+00   2.74997558010593E+00
      0.00000000000000E+00   0.00000000000000E+00   3.09771223003846E+00   2.13221818413858E+01   2.44198940714242E+01
     -7.44302631304213E-08   3.00000000000000E+02  -2.70525770379743E+01   3.00000973135760E+02   3.00014293208982E+02
      3.00036471234731E+02
      2.87500000000000E-01
      1.50000000000000E+01   1.50000000000000E+01   0.00000000000000E+00   0.00000000000000E+00  -1.74529448302081E-21
      1.74529448302081E-21   0.00000000000000E+00   4.34821141122472E-07   0.00000000000000E+00   2.57287507451776E-05
      0.00000000000000E+00   0.00000000000000E+00  -1.96986082913728E+01  -6.03014245380142E+00  -2.57287507451742E+01
     -3.61440778612904E-07   3.00000000000000E+02  -4.47274626561897E+01   2.87500000000000E+00   2.87497427124925E+00
      0.00000000000000E+00   0.00000000000000E+00   3.16722754965506E+00   2.25615231955187E+01   2.57287507451738E+01
     -7.33803625095667E-08   3.00000000000000E+02  -2.90155126456333E+01   3.00001043772968E+02   3.00015729036150E+02
      3.00041269134188E+02
      3.00000000000000E-01
      1.50000000000000E+01   1.50000000000000E+01   0.00000000000000E+00   0.00000000000000E+00  -1.94320819079545E-21
      1.94320819079545E-21   0.00000000000000E+00   4.34771404916637E-07   0.00000000000000E+00   2.70026642385940E-05
      0.00000000000000E+00   0.00000000000000E+00  -2.06246630063177E+01  -6.37800123222812E+00  -2.70026642385458E+01
     -3.62435545631333E-07   3.00000000000000E+02  -4.97719406678277E+01   3.00000000000000E+00   2.99997299733576E+00
      0.00000000000000E+00   0.00000000000000E+00   3.23350964071532E+00   2.37691545978302E+01   2.70026642385455E+01
     -7.23358592853054E-08   3.00000000000000E+02  -3.09863846654776E+01   3.00001114832203E+02   3.00017208085073E+02
      3.00046309331161E+02
      3.12500000000000E-01
      1.50000000000000E+01   1.50000000000000E+01   0.00000000000000E+00   0.00000000000000E+00  -2.14592153276975E-21
      2.14592153276975E-21   0.00000000000000E+00   4.34722973415372E-07   0.00000000000000E+00   2.82428548945878E-05
      0.00000000000000E+00   0.00000000000000E+00  -2.15247523258435E+01  -6.71810256872785E+00  -2.82428548945713E+01
     -3.63427754110024E-07   3.00000000000000E+02  -5.50194099879884E+01   3.12500000000000E+00   3.12497175714511E+00
      0.00000000000000E+00   0.00000000000000E+00   3.29683333067319E+00   2.49460215638979E+01   2.82428548945711E+01
     -7.12952193053477E-08   3.00000000000000E+02  -3.29645197332027E+01   3.00001186081631E+02   3.00018728459605E+02
      3.00051581683996E+02
      3.25000000000000E-01
      1.50000000000000E+01   1.50000000000000E+01   0.00000000000000E+00   0.00000000000000E+00  -2.35975593276102E-21
      2.35975593276102E-21   0.00000000000000E+00   4.34675796526083E-07   0.00000000000000E+00   2.94505279877375E-05
      0.00000000000000E+00   0.00000000000000E+00  -2.23999382453013E+01  -7.05058974239811E+00  -2.94505279876994E+01
     -3.64417501412544E-07   3.00000000000000E+02  -6.04617806288513E+01   3.25000000000000E+00   3.24997054947201E+00
      0.00000000000000E+00   0.00000000000000E+00   3.35743413415894E+00   2.60930938535404E+01   2.94505279876993E+01
     -7.02582951135389E-08   3.00000000000000E+02  -3.49493767517755E+01   3.00001257388883E+02   3.00020288425675E+02
      3.00057076187798E+02
      3.37500000000000E-01
      1.50000000000000E+01   1.50000000000000E+01   0.00000000000000E+00   0.00000000000000E+00  -2.56096191570214E-21
      2.56096191570214E-21   0.00000000000000E+00   4.34629827599658E-07   0.00000000000000E+00   3.06268230131104E-05
      0.00000000000000E+00   0.00000000000000E+00  -2.32512080171363E+01  -7.37561499597083E+00  -3.06268230131071E+01
     -3.65404198984101E-07   3.00000000000000E+02  -6.60912943681654E+01   3.37500000000000E+00   3.37496937317698E+00
      0.00000000000000E+00   0.00000000000000E+00   3.41551474620850E+00   2.72113082668986E+01   3.06268230131071E+01
     -6.92256286155568E-08   3.00000000000000E+02  -3.69404639899304E+01   3.00001329041474E+02   3.00021886355715E+02
      3.00062782891215E+02
      3.50000000000000E-01
      1.50000000000000E+01   1.50000000000000E+01   0.00000000000000E+00   0.00000000000000E+00  -2.77022968737545E-21
      2.77022968737545E-21   0.00000000000000E+00   4.34585024553069E-07   0.00000000000000E+00   3.17727800173765E-05
      0.00000000000000E+00   0.00000000000000E+00  -2.40794542989129E+01  -7.69332571841737E+00  -3.17727800173303E+01
     -3.66386798759586E-07   3.00000000000000E+02  -7.19004234934975E+01   3.50000000000000E+00   3.49996822721999E+00
      0.00000000000000E+00   0.00000000000000E+00   3.47125022435461E+00   2.83015297929757E+01   3.17727800173303E+01
     -6.81982257934836E-08   3.00000000000000E+02  -3.89372807683671E+01   3.00001401020157E+02   3.00023520683662E+02
      3.00068691774034E+02
      3.62500000000000E-01
      1.50000000000000E+01   1.50000000000000E+01   0.00000000000000E+00   0.00000000000000E+00  -2.98093246619518E-21
      2.98093246619518E-21   0.00000000000000E+00   4.34541350943767E-07   0.00000000000000E+00   3.28893091730879E-05
      0.00000000000000E+00   0.00000000000000E+00  -2.48854566470297E+01  -8.00385252606891E+00  -3.28893091730986E+01
     -3.67363751818611E-07   3.00000000000000E+02  -7.78817435541254E+01   3.62500000000000E+00   3.62496711069082E+00
      0.00000000000000E+00   0.00000000000000E+00   3.52479148766373E+00   2.93645176854347E+01   3.28893091730985E+01
     -6.71775991251562E-08   3.00000000000000E+02  -4.09392718686776E+01   3.00001473304374E+02   3.00025189873322E+02
      3.00074792640308E+02
      3.75000000000000E-01
      1.50000000000000E+01   1.50000000000000E+01   0.00000000000000E+00   0.00000000000000E+00  -3.19149537296951E-21
      3.19149537296951E-21   0.00000000000000E+00   4.34498776815248E-07   0.00000000000000E+00   3.39771665218399E-05
      0.00000000000000E+00   0.00000000000000E+00  -2.56698671423414E+01  -8.30729937959398E+00  -3.39771665219354E+01
     -3.68332793580332E-07   3.00000000000000E+02  -8.40278028463129E+01   3.75000000000000E+00   3.74996602283348E+00
      0.00000000000000E+00   0.00000000000000E+00   3.57626810072975E+00   3.04008984212055E+01   3.39771665219353E+01
     -6.61659832349171E-08   3.00000000000000E+02  -4.29457860443707E+01   3.00001545870941E+02   3.00026892388499E+02
      3.00081074957356E+02
      3.87500000000000E-01
      1.50000000000000E+01   1.50000000000000E+01   0.00000000000000E+00   0.00000000000000E+00  -3.40138538180938E-21
      3.40138538180938E-21   0.00000000000000E+00   4.34457278065220E-07   0.00000000000000E+00   3.50369672366378E-05
      0.00000000000000E+00   0.00000000000000E+00  -2.64332234316628E+01  -8.60374380504704E+00  -3.50369672367099E+01
     -3.69290652905197E-07   3.00000000000000E+02  -9.03310731054844E+01   3.87500000000000E+00   3.87496496303277E+00
      0.00000000000000E+00   0.00000000000000E+00   3.62579220706742E+00   3.14111750296423E+01   3.50369672367097E+01
     -6.51666251600239E-08   3.00000000000000E+02  -4.49560799467529E+01   3.00001618218365E+02   3.00028626691443E+02
      3.00087527790626E+02
      4.00000000000000E-01
      1.50000000000000E+01   1.50000000000000E+01   0.00000000000000E+00   0.00000000000000E+00  -3.60981880699718E-21
      3.60981880699718E-21   0.00000000000000E+00   4.34416829403337E-07   0.00000000000000E+00   3.60693609233394E-05
      0.00000000000000E+00   0.00000000000000E+00  -2.71760806326228E+01  -8.89328029082520E+00  -3.60693609234480E+01
     -3.70233136966604E-07   3.00000000000000E+02  -9.67843436084410E+01   4.00000000000000E+00   3.99996393063907E+00
      0.00000000000000E+00   0.00000000000000E+00   3.67346893146996E+00   3.23958919919779E+01   3.60693609234479E+01
     -6.41836924367366E-08   3.00000000000000E+02  -4.69695329472345E+01   3.00001690790449E+02   3.00030391380372E+02
      3.00094140525268E+02
      4.12500000000000E-01
      1.50000000000000E+01   1.50000000000000E+01   0.00000000000000E+00   0.00000000000000E+00  -3.81705590041640E-21
      3.81705590041640E-21   0.00000000000000E+00   4.34377383112360E-07   0.00000000000000E+00   3.70755655465538E-05
      0.00000000000000E+00   0.00000000000000E+00  -2.78994048479311E+01  -9.17616069862969E+00  -3.70755655465608E+01
     -3.71156889065988E-07   3.00000000000000E+02  -1.03382247169381E+02   4.12500000000000E+00   4.12496292443446E+00
      0.00000000000000E+00   0.00000000000000E+00   3.71942095589250E+00   3.33561445906680E+01   3.70755655465605E+01
     -6.32204940463725E-08   3.00000000000000E+02  -4.89863336895431E+01   3.00001763605862E+02   3.00032185632873E+02
      3.00100905733078E+02
      4.25000000000000E-01
      1.50000000000000E+01   1.50000000000000E+01   0.00000000000000E+00   0.00000000000000E+00  -4.01942430480693E-21
      4.01942430480693E-21   0.00000000000000E+00   4.34338847649646E-07   0.00000000000000E+00   3.80579084478915E-05
      0.00000000000000E+00   0.00000000000000E+00  -2.86049645104320E+01  -9.45294393736551E+00  -3.80579084477975E+01
     -3.72063084504123E-07   3.00000000000000E+02  -1.10123191058079E+02   4.25000000000000E+00   4.24996194209155E+00
      0.00000000000000E+00   0.00000000000000E+00   3.76381064580562E+00   3.42940978019919E+01   3.80579084477976E+01
     -6.22757631455250E-08   3.00000000000000E+02  -5.10081951301552E+01   3.00001836723495E+02   3.00034009660843E+02
      3.00107822878977E+02
      4.37500000000000E-01
      1.50000000000000E+01   1.50000000000000E+01   0.00000000000000E+00   0.00000000000000E+00  -4.22394895299701E-21
      4.22394895299701E-21   0.00000000000000E+00   4.34301111788776E-07   0.00000000000000E+00   3.90192216218216E-05
      0.00000000000000E+00   0.00000000000000E+00  -2.92948756671390E+01  -9.72434595467897E+00  -3.90192216218180E+01
     -3.72957377863507E-07   3.00000000000000E+02  -1.17008166873313E+02   4.37500000000000E+00   4.37496098077837E+00
      0.00000000000000E+00   0.00000000000000E+00   3.80681244346992E+00   3.52124091783480E+01   3.90192216218179E+01
     -6.13437339252699E-08   3.00000000000000E+02  -5.30376072637145E+01   3.00001910226823E+02   3.00035864228357E+02
      3.00114895615825E+02
      4.50000000000000E-01
      1.50000000000000E+01   1.50000000000000E+01   0.00000000000000E+00   0.00000000000000E+00  -4.41685464182920E-21
      4.41685464182920E-21   0.00000000000000E+00   4.34264086611326E-07   0.00000000000000E+00   3.99617794676459E-05
      0.00000000000000E+00   0.00000000000000E+00  -2.99708264598596E+01  -9.99095300777315E+00  -3.99617794676328E+01
     -3.73844861111171E-07   3.00000000000000E+02  -1.24037652278515E+02   4.50000000000000E+00   4.49996003822052E+00
      0.00000000000000E+00   0.00000000000000E+00   3.84856833488488E+00   3.61132111327478E+01   3.99617794676327E+01
     -6.04192255001552E-08   3.00000000000000E+02  -5.50764877980695E+01   3.00001984179868E+02   3.00037749807687E+02
      3.00122125416296E+02
      4.62500000000000E-01
      1.50000000000000E+01   1.50000000000000E+01   0.00000000000000E+00   0.00000000000000E+00  -4.60985163693331E-21
      4.60985163693331E-21   0.00000000000000E+00   4.34227708660962E-07   0.00000000000000E+00   4.08872128372805E-05