DF-ISE text

Info {
  version   = 1.0
  type      = xyplot
  datasets  = [
    "time"
    "Gate OuterVoltage" "Gate InnerVoltage" "Gate QuasiFermiPotential" "Gate DisplacementCurrent" "Gate eCurrent"
    "Gate hCurrent" "Gate TotalCurrent" "Gate Charge" "Emitter OuterVoltage" "Emitter InnerVoltage"
    "Emitter QuasiFermiPotential" "Emitter DisplacementCurrent" "Emitter eCurrent" "Emitter hCurrent" "Emitter TotalCurrent"
    "Emitter Charge" "Collector OuterVoltage" "Collector InnerVoltage" "Collector QuasiFermiPotential" "Collector DisplacementCurrent"
    "Collector eCurrent" "Collector hCurrent" "Collector TotalCurrent" "Collector Charge" ]
  functions = [
    Time
    OuterVoltage InnerVoltage QuasiFermiPotential DisplacementCurrent eCurrent
    hCurrent TotalCurrent Charge OuterVoltage InnerVoltage
    QuasiFermiPotential DisplacementCurrent eCurrent hCurrent TotalCurrent
    Charge OuterVoltage InnerVoltage QuasiFermiPotential DisplacementCurrent
    eCurrent hCurrent TotalCurrent Charge ]
}

Data {
      0.00000000000000E+00
      0.00000000000000E+00   0.00000000000000E+00   0.00000000000000E+00   0.00000000000000E+00  -5.04611686586632E-26
      5.04611686586632E-26   0.00000000000000E+00   2.03271036473717E-08   0.00000000000000E+00   0.00000000000000E+00
      0.00000000000000E+00   0.00000000000000E+00  -5.71571835987897E-18   6.86807255741862E-18   1.15235419753966E-18
     -3.40972168015527E-08   0.00000000000000E+00   0.00000000000000E+00   0.00000000000000E+00   0.00000000000000E+00
      1.34953526723927E-17  -1.46477068699322E-17  -1.15235419753948E-18   1.37701131541808E-08
      1.00000000000000E-03
      0.00000000000000E+00   0.00000000000000E+00   0.00000000000000E+00   0.00000000000000E+00  -7.52680444617733E-26
      7.52680444617733E-26   0.00000000000000E+00   1.74985795924724E-08   0.00000000000000E+00   0.00000000000000E+00
      0.00000000000000E+00   0.00000000000000E+00  -4.01113724499919E-12  -5.57297755815834E-08  -5.57337867188284E-08
     -5.33419744231942E-08   1.50000000000000E+00   1.50000000000000E+00   0.00000000000000E+00   0.00000000000000E+00
      5.57322101847966E-08   1.57653403164997E-12   5.57337867188282E-08   3.58433948307221E-08
      2.11400000000000E-03
      0.00000000000000E+00   0.00000000000000E+00   0.00000000000000E+00   0.00000000000000E+00  -8.10971851429343E-26
      8.10971851429343E-26   0.00000000000000E+00   1.73061041028657E-08   0.00000000000000E+00   0.00000000000000E+00
      0.00000000000000E+00   0.00000000000000E+00  -4.01503551361963E-12  -7.36921925465314E-08  -7.36962075820451E-08
     -6.79844996572676E-08   3.17100000000000E+00   3.17100000000000E+00   0.00000000000000E+00   0.00000000000000E+00
      7.36946119440096E-08   1.59563803516608E-12   7.36962075820447E-08   5.06783955544007E-08
      3.35054000000000E-03
      0.00000000000000E+00   0.00000000000000E+00   0.00000000000000E+00   0.00000000000000E+00  -6.46420266070755E-26
      6.46420266070755E-26   0.00000000000000E+00   1.71978214186755E-08   0.00000000000000E+00   0.00000000000000E+00
      0.00000000000000E+00   0.00000000000000E+00  -4.00691280108334E-12  -8.34331341069474E-08  -8.34371410197485E-08
     -8.18984270800340E-08   5.02581000000000E+00   5.02581000000000E+00   0.00000000000000E+00   0.00000000000000E+00
      8.34360894409144E-08   1.05157883343211E-12   8.34371410197478E-08   6.47006056613583E-08
      4.74783020000000E-03
      0.00000000000000E+00   0.00000000000000E+00   0.00000000000000E+00   0.00000000000000E+00  -6.46530002294782E-26
      6.46530002294782E-26   0.00000000000000E+00   1.71008528355052E-08   0.00000000000000E+00   0.00000000000000E+00
      0.00000000000000E+00   0.00000000000000E+00  -4.02357116820195E-12  -9.16197358770103E-08  -9.16237594481785E-08
     -9.60379676492583E-08   7.12174530000000E+00   7.12174530000000E+00   0.00000000000000E+00   0.00000000000000E+00
      9.16221223161941E-08   1.63713198419904E-12   9.16237594481783E-08   7.89371148137529E-08
      6.32117896520000E-03
      0.00000000000000E+00   0.00000000000000E+00   0.00000000000000E+00   0.00000000000000E+00  -7.31251704294759E-26
      7.31251704294759E-26   0.00000000000000E+00   1.70063356303007E-08   0.00000000000000E+00   0.00000000000000E+00
      0.00000000000000E+00   0.00000000000000E+00  -4.02833358721814E-12  -1.18892322097925E-07  -1.18896350431512E-07
     -1.08526296538566E-07   9.48176844780000E+00   9.48176844780000E+00   0.00000000000000E+00   0.00000000000000E+00
      1.18894735229934E-07   1.61520157919487E-12   1.18896350431513E-07   9.15199609082660E-08
      8.10535646493680E-03
      0.00000000000000E+00   0.00000000000000E+00   0.00000000000000E+00   0.00000000000000E+00  -6.60642751912951E-26
      6.60642751912951E-26   0.00000000000000E+00   1.69089502634047E-08   0.00000000000000E+00   0.00000000000000E+00
      0.00000000000000E+00   0.00000000000000E+00  -4.03840493054548E-12  -1.28489159786378E-07  -1.28493198191309E-07
     -1.21602627747837E-07   1.21580346974052E+01   1.21580346974052E+01   0.00000000000000E+00   0.00000000000000E+00
      1.28491528869454E-07   1.66932185508575E-12   1.28493198191309E-07   1.04693677484431E-07
      1.01214770396394E-02
      0.00000000000000E+00   0.00000000000000E+00   0.00000000000000E+00   0.00000000000000E+00  -6.42117676083197E-26
      6.42117676083197E-26   0.00000000000000E+00   1.68071484380089E-08   0.00000000000000E+00   0.00000000000000E+00
      0.00000000000000E+00   0.00000000000000E+00  -4.04430281285246E-12  -1.60602885565697E-07  -1.60606929868510E-07
     -1.34414527791376E-07   1.51822155594591E+01   1.51822155594591E+01   0.00000000000000E+00   0.00000000000000E+00
      1.60605244036124E-07   1.68583238465511E-12   1.60606929868509E-07   1.17607379353367E-07
      1.23996932890533E-02
      0.00000000000000E+00   0.00000000000000E+00   0.00000000000000E+00   0.00000000000000E+00  -6.14259314356250E-26
      6.14259314356250E-26   0.00000000000000E+00   1.67015071194788E-08   0.00000000000000E+00   0.00000000000000E+00
      0.00000000000000E+00   0.00000000000000E+00  -4.05000534379264E-12  -1.69088840144122E-07  -1.69092890149466E-07
     -1.47676179958073E-07   1.85995399335800E+01   1.85995399335800E+01   0.00000000000000E+00   0.00000000000000E+00
      1.69091186843355E-07   1.70330610901165E-12   1.69092890149464E-07   1.30974672838595E-07
      1.49740776508910E-02
      0.00000000000000E+00   0.00000000000000E+00   0.00000000000000E+00   0.00000000000000E+00  -7.23437416078202E-26
      7.23437416078202E-26   0.00000000000000E+00   1.65895103744675E-08   0.00000000000000E+00   0.00000000000000E+00
      0.00000000000000E+00   0.00000000000000E+00  -4.05618611388220E-12  -1.99087325329957E-07  -1.99091381516071E-07
     -1.61060079319887E-07   2.24611164763365E+01   2.24611164763365E+01   0.00000000000000E+00   0.00000000000000E+00
      1.99089655105019E-07   1.72641105103636E-12   1.99091381516070E-07   1.44470568945420E-07
      1.78831319797677E-02
      0.00000000000000E+00   0.00000000000000E+00   0.00000000000000E+00   0.00000000000000E+00  -5.96059693264615E-26
      5.96059693264615E-26   0.00000000000000E+00   1.64707702499705E-08   0.00000000000000E+00   0.00000000000000E+00
      0.00000000000000E+00   0.00000000000000E+00  -4.06290259621366E-12  -2.08850735902267E-07  -2.08854798804863E-07
     -1.75135233929771E-07   2.68246979696515E+01   2.68246979696515E+01   0.00000000000000E+00   0.00000000000000E+00
      2.08853051818990E-07   1.74698587249468E-12   2.08854798804862E-07   1.58664463679800E-07
      2.11703633713983E-02
      0.00000000000000E+00   0.00000000000000E+00   0.00000000000000E+00   0.00000000000000E+00  -8.04855866532498E-26
      8.04855866532498E-26   0.00000000000000E+00   1.63458976284140E-08   0.00000000000000E+00   0.00000000000000E+00
      0.00000000000000E+00   0.00000000000000E+00  -4.07026036543123E-12  -2.15711456554599E-07  -2.15715526814964E-07
     -1.90414555565185E-07   3.17555450570974E+01   3.17555450570974E+01   0.00000000000000E+00   0.00000000000000E+00
      2.15713764023735E-07   1.76279122839824E-12   2.15715526814963E-07   1.74068657936769E-07
      2.48717859183743E-02
      0.00000000000000E+00   0.00000000000000E+00   0.00000000000000E+00   0.00000000000000E+00  -6.53821060194604E-26
      6.53821060194604E-26   0.00000000000000E+00   1.62066045189148E-08   0.00000000000000E+00   0.00000000000000E+00
      0.00000000000000E+00   0.00000000000000E+00  -4.07818818937777E-12  -2.24724168311052E-07  -2.24728246499242E-07
     -2.07107896364335E-07   3.73076788775615E+01   3.73076788775615E+01   0.00000000000000E+00   0.00000000000000E+00
      2.24726462511446E-07   1.78398779288666E-12   2.24728246499238E-07   1.90901291845418E-07
      2.90395877062693E-02
      0.00000000000000E+00   0.00000000000000E+00   0.00000000000000E+00   0.00000000000000E+00  -6.35676483731703E-26
      6.35676483731703E-26   0.00000000000000E+00   1.60697106765675E-08   0.00000000000000E+00   0.00000000000000E+00
      0.00000000000000E+00   0.00000000000000E+00  -4.08614358230542E-12  -2.33498080039419E-07  -2.33502166183002E-07
     -2.24684571020147E-07   4.35593815594040E+01   4.35593815594040E+01   0.00000000000000E+00   0.00000000000000E+00
      2.33500358702887E-07   1.80748011303809E-12   2.33502166183001E-07   2.08614860343580E-07
      3.37658749337423E-02
      0.00000000000000E+00   0.00000000000000E+00   0.00000000000000E+00   0.00000000000000E+00  -7.51644884075489E-26
      7.51644884075489E-26   0.00000000000000E+00   1.59187541075621E-08   0.00000000000000E+00   0.00000000000000E+00
      0.00000000000000E+00   0.00000000000000E+00  -4.09545139236720E-12  -2.72199526428869E-07  -2.72203621880261E-07
     -2.43810369510077E-07   5.06488124006134E+01   5.06488124006134E+01   0.00000000000000E+00   0.00000000000000E+00
      2.72201758927282E-07   1.86295297918032E-12   2.72203621880261E-07   2.27891615402513E-07
      3.90876743518768E-02
      0.00000000000000E+00   0.00000000000000E+00   0.00000000000000E+00   0.00000000000000E+00  -6.69244128121973E-26
      6.69244128121973E-26   0.00000000000000E+00   1.57538036616536E-08   0.00000000000000E+00   0.00000000000000E+00
      0.00000000000000E+00   0.00000000000000E+00  -4.10551658514810E-12  -2.94420278214782E-07  -2.94424383731368E-07
     -2.62047780797389E-07   5.86315115278153E+01   5.86315115278153E+01   0.00000000000000E+00   0.00000000000000E+00
      2.94422492340754E-07   1.89139061087832E-12   2.94424383731365E-07   2.46293977135734E-07
      4.50587332990238E-02
      0.00000000000000E+00   0.00000000000000E+00   0.00000000000000E+00   0.00000000000000E+00  -7.29835477124718E-26
      7.29835477124718E-26   0.00000000000000E+00   1.55871538011096E-08   0.00000000000000E+00   0.00000000000000E+00
      0.00000000000000E+00   0.00000000000000E+00  -4.11682798648191E-12  -2.99831914865817E-07  -2.99836031693803E-07
     -2.81354796647123E-07   6.75880999485357E+01   6.75880999485357E+01   0.00000000000000E+00   0.00000000000000E+00
      2.99834122273459E-07   1.90942034279259E-12   2.99836031693802E-07   2.65767642846015E-07
      5.17821456735113E-02
      0.00000000000000E+00   0.00000000000000E+00   0.00000000000000E+00   0.00000000000000E+00  -6.51428203188230E-26
      6.51428203188230E-26   0.00000000000000E+00   1.53955077518192E-08   0.00000000000000E+00   0.00000000000000E+00
      0.00000000000000E+00   0.00000000000000E+00  -4.13039778655026E-12  -3.03635654621504E-07  -3.03639785019290E-07
     -3.02858423755749E-07   7.76732185102670E+01   7.76732185102670E+01   0.00000000000000E+00   0.00000000000000E+00
      3.03637855014528E-07   1.93000475993963E-12   3.03639785019287E-07   2.87462916003929E-07
      5.93796016566822E-02
      0.00000000000000E+00   0.00000000000000E+00   0.00000000000000E+00   0.00000000000000E+00  -7.03901118114058E-26
      7.03901118114058E-26   0.00000000000000E+00   1.51748799226626E-08   0.00000000000000E+00   0.00000000000000E+00
      0.00000000000000E+00   0.00000000000000E+00  -4.14520433848577E-12  -3.08672987546950E-07  -3.08677132751288E-07
     -3.26798554558533E-07   8.90694024850233E+01   8.90694024850233E+01   0.00000000000000E+00   0.00000000000000E+00
      3.08675173770386E-07   1.95898090172657E-12   3.08677132751288E-07   3.11623674635873E-07
      6.79039472697999E-02
      0.00000000000000E+00   0.00000000000000E+00   0.00000000000000E+00   0.00000000000000E+00  -7.58612198747905E-26
      7.58612198747905E-26   0.00000000000000E+00   1.49652033235799E-08   0.00000000000000E+00   0.00000000000000E+00
      0.00000000000000E+00   0.00000000000000E+00  -4.16179086732896E-12  -3.68057718907699E-07  -3.68061880698567E-07
     -3.51107855409562E-07   1.01855920904700E+02   1.01855920904700E+02   0.00000000000000E+00   0.00000000000000E+00
      3.68059854903795E-07   2.02579477207927E-12   3.68061880698567E-07   3.36142652085982E-07
      7.74682630477179E-02
      0.00000000000000E+00   0.00000000000000E+00   0.00000000000000E+00   0.00000000000000E+00  -6.92586353121971E-26
      6.92586353121971E-26   0.00000000000000E+00   1.47397491644924E-08   0.00000000000000E+00   0.00000000000000E+00
      0.00000000000000E+00   0.00000000000000E+00  -4.18218227596761E-12  -4.27152726398186E-07  -4.27156908580462E-07
     -3.73877911379342E-07   1.16202394571577E+02   1.16202394571577E+02   0.00000000000000E+00   0.00000000000000E+00
      4.27154840529181E-07   2.06805127716519E-12   4.27156908580458E-07   3.59138162214852E-07
      8.82376826136537E-02
      0.00000000000000E+00   0.00000000000000E+00   0.00000000000000E+00   0.00000000000000E+00  -7.85480399005692E-26
      7.85480399005692E-26   0.00000000000000E+00   1.44759675562306E-08   0.00000000000000E+00   0.00000000000000E+00
      0.00000000000000E+00   0.00000000000000E+00  -4.21357563200415E-12  -4.36400555720990E-07  -4.36404769296622E-07
     -3.99046762820602E-07   1.32356523920480E+02   1.32356523920480E+02   0.00000000000000E+00   0.00000000000000E+00
      4.36402674808890E-07   2.09448773064032E-12   4.36404769296621E-07   3.84570795264375E-07
      1.00364049044897E-01
      0.00000000000000E+00   0.00000000000000E+00   0.00000000000000E+00   0.00000000000000E+00  -6.11578278395855E-26
      6.11578278395855E-26   0.00000000000000E+00   1.41708925615503E-08   0.00000000000000E+00   0.00000000000000E+00
      0.00000000000000E+00   0.00000000000000E+00  -4.26853209031608E-12  -4.56911492644907E-07  -4.56915761176997E-07
     -4.26778173596094E-07   1.50546073567346E+02   1.50546073567346E+02   0.00000000000000E+00   0.00000000000000E+00
      4.56913630027840E-07   2.13114915487934E-12   4.56915761176995E-07   4.12607281034546E-07
      1.13969832180753E-01
      0.00000000000000E+00   0.00000000000000E+00   0.00000000000000E+00   0.00000000000000E+00  -7.33955805974731E-26
      7.33955805974731E-26   0.00000000000000E+00   1.38703156970857E-08   0.00000000000000E+00   0.00000000000000E+00
      0.00000000000000E+00   0.00000000000000E+00  -4.33680264712905E-12  -5.18371270276418E-07  -5.18375607079065E-07
     -4.55294273546013E-07   1.70954748271129E+02   1.70954748271129E+02   0.00000000000000E+00   0.00000000000000E+00
      5.18373697045719E-07   1.91003334690309E-12   5.18375607079066E-07   4.41423957848933E-07
      1.29289943991726E-01
      0.00000000000000E+00   0.00000000000000E+00   0.00000000000000E+00   0.00000000000000E+00  -8.10760189798882E-26
      8.10760189798882E-26   0.00000000000000E+00   1.35282480976982E-08   0.00000000000000E+00   0.00000000000000E+00
      0.00000000000000E+00   0.00000000000000E+00  -4.25607006706620E-12  -5.60172519007482E-07  -5.60176775077549E-07
     -4.87054705975518E-07   1.93934915987589E+02   1.93934915987589E+02   0.00000000000000E+00   0.00000000000000E+00
      5.60176671410579E-07   1.03666969028475E-13   5.60176775077548E-07   4.73526457877824E-07
      1.46540389890882E-01
      0.00000000000000E+00   0.00000000000000E+00   0.00000000000000E+00   0.00000000000000E+00  -8.01693428871700E-26
      8.01693428871700E-26   0.00000000000000E+00   1.31306733862283E-08   0.00000000000000E+00   0.00000000000000E+00
      0.00000000000000E+00   0.00000000000000E+00  -4.36810654672371E-12  -7.01520097152629E-07  -7.01524465259176E-07
     -5.22553810033692E-07   2.19810584836322E+02   2.19810584836322E+02   0.00000000000000E+00   0.00000000000000E+00
      7.01522102294613E-07   2.36296456232298E-12   7.01524465259175E-07   5.09423136647465E-07
      1.65826388406138E-01
      0.00000000000000E+00   0.00000000000000E+00   0.00000000000000E+00   0.00000000000000E+00  -7.93349613520271E-26
      7.93349613520271E-26   0.00000000000000E+00   1.26644012346777E-08   0.00000000000000E+00   0.00000000000000E+00
      0.00000000000000E+00   0.00000000000000E+00  -4.38627694873383E-12  -1.12421163046431E-06  -1.12421601674126E-06
     -5.56756686517894E-07   2.48739582609207E+02   2.48739582609207E+02   0.00000000000000E+00   0.00000000000000E+00
      1.12421351358816E-06   2.50315309102108E-12   1.12421601674125E-06   5.44092285283217E-07
      1.76645833573196E-01
      0.00000000000000E+00   0.00000000000000E+00   0.00000000000000E+00   0.00000000000000E+00  -8.11239907599262E-26
      8.11239907599262E-26   0.00000000000000E+00   1.23999257131926E-08   0.00000000000000E+00   0.00000000000000E+00
      0.00000000000000E+00   0.00000000000000E+00   2.43337797330601E-11  -3.06233956419759E-06  -3.06231523041785E-06
     -5.75150121887144E-07   2.64968750359795E+02   2.64968750359795E+02   0.00000000000000E+00   0.00000000000000E+00
      3.06245018079993E-06  -1.34950382109191E-10   3.06231523041782E-06   5.62750196173953E-07
      1.78168670480460E-01
      0.00000000000000E+00   0.00000000000000E+00   0.00000000000000E+00   0.00000000000000E+00  -7.51342479616843E-26
      7.51342479616843E-26   0.00000000000000E+00   1.23631459071571E-08   0.00000000000000E+00   0.00000000000000E+00
      0.00000000000000E+00   0.00000000000000E+00  -4.38859874711316E-12  -1.00034189021723E-05  -1.00034232907710E-05
     -5.77684250800002E-07   2.67253005720690E+02   2.67253005720690E+02   0.00000000000000E+00   0.00000000000000E+00
      1.00034193449542E-05   3.94581683392592E-12   1.00034232907710E-05   5.65321104892852E-07
      1.78276220837035E-01
      0.00000000000000E+00   0.00000000000000E+00   0.00000000000000E+00   0.00000000000000E+00  -6.42161243735196E-26
      6.42161243735196E-26   0.00000000000000E+00   1.23605752488578E-08   0.00000000000000E+00   0.00000000000000E+00
      0.00000000000000E+00   0.00000000000000E+00  -4.38386259767594E-12  -1.50210721641201E-05  -1.50210765479827E-05
     -5.77861191953474E-07   2.67414331255553E+02   2.67414331255553E+02   0.00000000000000E+00   0.00000000000000E+00
      1.50210718042675E-05   4.74371513552025E-12   1.50210765479826E-05   5.65500616704624E-07
      1.78337632090640E-01
      0.00000000000000E+00   0.00000000000000E+00   0.00000000000000E+00   0.00000000000000E+00  -6.64036787831215E-26
      6.64036787831215E-26   0.00000000000000E+00   1.23591091142422E-08   0.00000000000000E+00   0.00000000000000E+00
      0.00000000000000E+00   0.00000000000000E+00  -4.37211534697056E-12  -2.54478192986428E-05  -2.54478236707582E-05
     -5.77962087880840E-07   2.67506448135960E+02   2.67506448135960E+02   0.00000000000000E+00   0.00000000000000E+00
      2.54478172922751E-05   6.37848303504482E-12   2.54478236707582E-05   5.65602978766605E-07
      1.78372820738955E-01
      0.00000000000000E+00   0.00000000000000E+00   0.00000000000000E+00   0.00000000000000E+00  -6.54655530717774E-26
      6.54655530717774E-26   0.00000000000000E+00   1.23582700181134E-08   0.00000000000000E+00   0.00000000000000E+00
      0.00000000000000E+00   0.00000000000000E+00  -4.31121682022719E-12  -8.81305559713034E-05  -8.81305602825202E-05
     -5.78019802314026E-07   2.67559231108433E+02   2.67559231108433E+02   0.00000000000000E+00   0.00000000000000E+00
      8.81305439174059E-05   1.63651139401350E-11   8.81305602825198E-05   5.65661532295913E-07
      1.78377843918502E-01
      0.00000000000000E+00   0.00000000000000E+00   0.00000000000000E+00   0.00000000000000E+00  -5.22669065260994E-26
      5.22669065260994E-26   0.00000000000000E+00   1.23581510862682E-08   0.00000000000000E+00   0.00000000000000E+00
      0.00000000000000E+00   0.00000000000000E+00  -4.18099120709461E-12  -2.24088134357992E-04  -2.24088138538984E-04
     -5.78027921686804E-07   2.67566765877754E+02   2.67566765877754E+02   0.00000000000000E+00   0.00000000000000E+00
      2.24088100537273E-04   3.80017094481462E-11   2.24088138538983E-04   5.65669770600541E-07
      1.78380712154024E-01
      0.00000000000000E+00   0.00000000000000E+00   0.00000000000000E+00   0.00000000000000E+00  -5.84104637342782E-26
      5.84104637342782E-26   0.00000000000000E+00   1.23580881950465E-08   0.00000000000000E+00   0.00000000000000E+00
      0.00000000000000E+00   0.00000000000000E+00  -3.35073832126408E-12  -1.09012459348336E-03  -1.09012459683409E-03
     -5.78031834823242E-07   2.67571068231036E+02   2.67571068231036E+02   0.00000000000000E+00   0.00000000000000E+00
      1.09012442010178E-03   1.76732311744642E-10   1.09012459683409E-03   5.65673746628202E-07
      1.78383930314279E-01
      0.00000000000000E+00   0.00000000000000E+00   0.00000000000000E+00   0.00000000000000E+00  -6.62017111922720E-26
      6.62017111922720E-26   0.00000000000000E+00   1.23580317693816E-08   0.00000000000000E+00   0.00000000000000E+00
      0.00000000000000E+00   0.00000000000000E+00  -2.74159040495736E-13  -4.28823793263502E-03  -4.28823793290917E-03
     -5.78034185921742E-07   2.67575895471418E+02   2.67575895471418E+02   0.00000000000000E+00   0.00000000000000E+00
      4.28823722997708E-03   7.02932117961947E-10   4.28823793290920E-03   5.65676154152365E-07
      1.78387566835367E-01
      0.00000000000000E+00   0.00000000000000E+00   0.00000000000000E+00   0.00000000000000E+00  -6.62422746193970E-26
      6.62422746193970E-26   0.00000000000000E+00   1.23579706518529E-08   0.00000000000000E+00   0.00000000000000E+00
      0.00000000000000E+00   0.00000000000000E+00   3.61861128326631E-12  -8.32523969462271E-03  -8.32523969100410E-03
     -5.78036458526629E-07   2.67581350253050E+02   2.67581350253050E+02   0.00000000000000E+00   0.00000000000000E+00
      8.32523829141126E-03   1.39959291473759E-09   8.32523969100418E-03   5.65678487874778E-07
      1.78391705196365E-01
      0.00000000000000E+00   0.00000000000000E+00   0.00000000000000E+00   0.00000000000000E+00  -6.42953934015376E-26
      6.42953934015376E-26   0.00000000000000E+00   1.23579014698779E-08   0.00000000000000E+00   0.00000000000000E+00
      0.00000000000000E+00   0.00000000000000E+00   8.12047094523819E-12  -1.29867451317442E-02  -1.29867451236237E-02
     -5.78038987919869E-07   2.67587557794548E+02   2.67587557794548E+02   0.00000000000000E+00   0.00000000000000E+00
      1.29867428719865E-02   2.25163733185183E-09   1.29867451236238E-02   5.65681086449997E-07
}
