DF-ISE text

Info {
  version   = 1.0
  type      = xyplot
  datasets  = [
    "time"
    "Gate OuterVoltage" "Gate InnerVoltage" "Gate QuasiFermiPotential" "Gate DisplacementCurrent" "Gate eCurrent"
    "Gate hCurrent" "Gate TotalCurrent" "Gate Charge" "Emitter OuterVoltage" "Emitter InnerVoltage"
    "Emitter QuasiFermiPotential" "Emitter DisplacementCurrent" "Emitter eCurrent" "Emitter hCurrent" "Emitter TotalCurrent"
    "Emitter Charge" "Collector OuterVoltage" "Collector InnerVoltage" "Collector QuasiFermiPotential" "Collector DisplacementCurrent"
    "Collector eCurrent" "Collector hCurrent" "Collector TotalCurrent" "Collector Charge" "Collector Temperature"
    "Collector lHeatFlux" "Tmin" "Tave" "Tmax" ]
  functions = [
    Time
    OuterVoltage InnerVoltage QuasiFermiPotential DisplacementCurrent eCurrent
    hCurrent TotalCurrent Charge OuterVoltage InnerVoltage
    QuasiFermiPotential DisplacementCurrent eCurrent hCurrent TotalCurrent
    Charge OuterVoltage InnerVoltage QuasiFermiPotential DisplacementCurrent
    eCurrent hCurrent TotalCurrent Charge Temperature
    lHeatFlux MinTemperature AveTemperature MaxTemperature ]
}

Data {
      0.00000000000000E+00
      0.00000000000000E+00   0.00000000000000E+00   0.00000000000000E+00   0.00000000000000E+00  -1.28852849767557E-25
      1.28852849767557E-25   0.00000000000000E+00   2.03271036473717E-08   0.00000000000000E+00   0.00000000000000E+00
      0.00000000000000E+00   0.00000000000000E+00  -7.61297384377695E-18   5.44826320460607E-18  -2.16471063917088E-18
     -3.40972168015527E-08   0.00000000000000E+00   0.00000000000000E+00   0.00000000000000E+00   0.00000000000000E+00
      2.38867135323694E-17  -2.17220028931984E-17   2.16471063917096E-18   1.37701131541808E-08   3.00000000000000E+02
      0.00000000000000E+00   3.00000000000000E+02   2.99999999999966E+02   3.00000000000000E+02
      2.50000000000000E-04
      0.00000000000000E+00   0.00000000000000E+00   0.00000000000000E+00   0.00000000000000E+00  -4.17947073467769E-25
      4.17947073467769E-25   0.00000000000000E+00   1.85323871231540E-08   0.00000000000000E+00   0.00000000000000E+00
      0.00000000000000E+00   0.00000000000000E+00  -4.00718712311180E-12  -2.13176748380397E-08  -2.13216820251629E-08
     -4.04079576428929E-08   3.75000000000000E-01   3.75000000000000E-01   0.00000000000000E+00   0.00000000000000E+00
      2.13201259957583E-08   1.55602940451817E-12   2.13216820251628E-08   2.18755705197388E-08   3.00000000000000E+02
     -3.29896068334000E-09   2.99999999999990E+02   2.99999999999967E+02   3.00000000000013E+02
      5.29500000000000E-04
      0.00000000000000E+00   0.00000000000000E+00   0.00000000000000E+00   0.00000000000000E+00  -1.65074905231699E-24
      1.65074905231699E-24   0.00000000000000E+00   1.78430175938702E-08   0.00000000000000E+00   0.00000000000000E+00
      0.00000000000000E+00   0.00000000000000E+00  -4.00871194121156E-12  -3.07369685468550E-08  -3.07409772587962E-08
     -4.57043396703052E-08   7.94250000000000E-01   7.94250000000000E-01   0.00000000000000E+00   0.00000000000000E+00
      3.07394140640889E-08   1.56319470728083E-12   3.07409772587962E-08   2.78613220764350E-08   3.00000000000000E+02
     -1.87251593540654E-08   2.99999999999989E+02   2.99999999999985E+02   3.00000000000054E+02
      8.41981000000000E-04
      0.00000000000000E+00   0.00000000000000E+00   0.00000000000000E+00   0.00000000000000E+00  -2.36779628347227E-24
      2.36779628347227E-24   0.00000000000000E+00   1.75692237066906E-08   0.00000000000000E+00   0.00000000000000E+00
      0.00000000000000E+00   0.00000000000000E+00  -4.01040950267216E-12  -5.09928222113718E-08  -5.09968326208744E-08
     -5.09126826585782E-08   1.26297150000000E+00   1.26297150000000E+00   0.00000000000000E+00   0.00000000000000E+00
      5.09952639734461E-08   1.56864742797881E-12   5.09968326208741E-08   3.33434589518880E-08   3.00000000000000E+02
     -5.07857575655856E-08   2.99999999999987E+02   3.00000000000026E+02   3.00000000000143E+02
      1.19508453000000E-03
      0.00000000000000E+00   0.00000000000000E+00   0.00000000000000E+00   0.00000000000000E+00  -3.13584286727610E-25
      3.13584286727610E-25   0.00000000000000E+00   1.74407155900772E-08   0.00000000000000E+00   0.00000000000000E+00
      0.00000000000000E+00   0.00000000000000E+00  -4.01182728008696E-12  -5.79697814690565E-08  -5.79737932963365E-08
     -5.61445767210951E-08   1.79262679500000E+00   1.79262679500000E+00   0.00000000000000E+00   0.00000000000000E+00
      5.79722126005533E-08   1.58069578311585E-12   5.79737932963364E-08   3.87038611310186E-08   3.00000000000000E+02
     -8.90317066783934E-08   2.99999999999994E+02   3.00000000000079E+02   3.00000000000246E+02
      1.59409151890000E-03
      0.00000000000000E+00   0.00000000000000E+00   0.00000000000000E+00   0.00000000000000E+00  -5.34056879439441E-24
      5.34056879439441E-24   0.00000000000000E+00   1.73686856751064E-08   0.00000000000000E+00   0.00000000000000E+00
      0.00000000000000E+00   0.00000000000000E+00  -3.99797346353531E-12  -6.96988566687167E-08  -6.97028546421803E-08
     -6.15430533452619E-08   2.39113727835000E+00   2.39113727835000E+00   0.00000000000000E+00   0.00000000000000E+00
      6.97013579877418E-08   1.49665443854549E-12   6.97028546421804E-08   4.41743676701559E-08   3.00000000000000E+02
     -1.50841358842754E-07   3.00000000000004E+02   3.00000000000168E+02   3.00000000000408E+02
      2.04656544431260E-03
      0.00000000000000E+00   0.00000000000000E+00   0.00000000000000E+00   0.00000000000000E+00  -3.51617422128986E-25
      3.51617422128986E-25   0.00000000000000E+00   1.73135291058082E-08   0.00000000000000E+00   0.00000000000000E+00
      0.00000000000000E+00   0.00000000000000E+00  -4.01259678523772E-12  -7.31901875960486E-08  -7.31942001928338E-08
     -6.71926532331591E-08   3.06984816646890E+00   3.06984816646890E+00   0.00000000000000E+00   0.00000000000000E+00
      7.31926146521387E-08   1.58554069491431E-12   7.31942001928336E-08   4.98791241273503E-08   3.00000000000000E+02
     -2.06862434943425E-07   3.00000000000007E+02   3.00000000000241E+02   3.00000000000556E+02
      2.55967087573049E-03
      0.00000000000000E+00   0.00000000000000E+00   0.00000000000000E+00   0.00000000000000E+00  -1.48982652213553E-23
      1.48982652213553E-23   0.00000000000000E+00   1.72639719737725E-08   0.00000000000000E+00   0.00000000000000E+00
      0.00000000000000E+00   0.00000000000000E+00  -3.97522060017792E-12  -8.09795583373656E-08  -8.09835335579658E-08
     -7.30919020755514E-08   3.83950631359573E+00   3.83950631359573E+00   0.00000000000000E+00   0.00000000000000E+00
      8.09819421499260E-08   1.59140803918926E-12   8.09835335579652E-08   5.58279301017783E-08   3.00000000000000E+02
     -2.80407183695351E-07   3.00000000000009E+02   3.00000000000350E+02   3.00000000000797E+02
      3.14358485668404E-03
      0.00000000000000E+00   0.00000000000000E+00   0.00000000000000E+00   0.00000000000000E+00  -8.85428258635068E-24
      8.85428258635068E-24   0.00000000000000E+00   1.72138312146828E-08   0.00000000000000E+00   0.00000000000000E+00
      0.00000000000000E+00   0.00000000000000E+00  -3.95604453604519E-12  -8.28717433641846E-08  -8.28756994087206E-08
     -7.96258127335375E-08   4.71537728502607E+00   4.71537728502607E+00   0.00000000000000E+00   0.00000000000000E+00
      8.28740943636644E-08   1.60504505577748E-12   8.28756994087201E-08   6.24119815188550E-08   3.00000000000000E+02
     -3.63379312150386E-07   3.00000000000013E+02   3.00000000000465E+02   3.00000000000997E+02
      3.80807896700919E-03
      0.00000000000000E+00   0.00000000000000E+00   0.00000000000000E+00   0.00000000000000E+00  -5.74568232576434E-25
      5.74568232576434E-25   0.00000000000000E+00   1.71652078087971E-08   0.00000000000000E+00   0.00000000000000E+00
      0.00000000000000E+00   0.00000000000000E+00  -4.02032516697141E-12  -8.50107985923676E-08  -8.50148189175346E-08
     -8.68317899254295E-08   5.71211845051379E+00   5.71211845051379E+00   0.00000000000000E+00   0.00000000000000E+00
      8.50132017544727E-08   1.61716306166393E-12   8.50148189175344E-08   6.96665821166323E-08   3.00000000000000E+02
     -4.63656241654254E-07   3.00000000000018E+02   3.00000000000598E+02   3.00000000001248E+02
      4.56161528811791E-03
      0.00000000000000E+00   0.00000000000000E+00   0.00000000000000E+00   0.00000000000000E+00  -3.37243534195371E-24
      3.37243534195371E-24   0.00000000000000E+00   1.71132037073562E-08   0.00000000000000E+00   0.00000000000000E+00
      0.00000000000000E+00   0.00000000000000E+00  -4.02283838479789E-12  -8.74855425754898E-08  -8.74895654138746E-08
     -9.44254805085864E-08   6.84242293217686E+00   6.84242293217686E+00   0.00000000000000E+00   0.00000000000000E+00
      8.74879806345704E-08   1.58477930400987E-12   8.74895654138744E-08   7.73122768012304E-08   3.00000000000000E+02
     -5.74374829019673E-07   3.00000000000023E+02   3.00000000000749E+02   3.00000000001564E+02
      5.41612547625519E-03
      0.00000000000000E+00   0.00000000000000E+00   0.00000000000000E+00   0.00000000000000E+00  -2.14842032460487E-24
      2.14842032460487E-24   0.00000000000000E+00   1.70597270261430E-08   0.00000000000000E+00   0.00000000000000E+00
      0.00000000000000E+00   0.00000000000000E+00  -4.02597054921181E-12  -1.15388853678361E-07  -1.15392879648910E-07
     -1.01426090425317E-07   8.12418821438279E+00   8.12418821438279E+00   0.00000000000000E+00   0.00000000000000E+00
      1.15391230984181E-07   1.64866472896725E-12   1.15392879648910E-07   8.43663633991736E-08   3.00000000000000E+02
     -9.08964739760410E-07   3.00000000000038E+02   3.00000000001219E+02   3.00000000002401E+02
      6.38514002960287E-03
      0.00000000000000E+00   0.00000000000000E+00   0.00000000000000E+00   0.00000000000000E+00  -1.56730259874890E-24
      1.56730259874890E-24   0.00000000000000E+00   1.70026156609400E-08   0.00000000000000E+00   0.00000000000000E+00
      0.00000000000000E+00   0.00000000000000E+00  -4.02982003465731E-12  -1.19084025315879E-07  -1.19088055135914E-07
     -1.09020526095662E-07   9.57771004440431E+00   9.57771004440431E+00   0.00000000000000E+00   0.00000000000000E+00
      1.19086398781134E-07   1.65635477903789E-12   1.19088055135913E-07   9.20179104347233E-08   3.00000000000000E+02
     -1.11222599818822E-06   3.00000000000047E+02   3.00000000001510E+02   3.00000000002941E+02
      7.48012647488575E-03
      0.00000000000000E+00   0.00000000000000E+00   0.00000000000000E+00   0.00000000000000E+00  -1.52907319947450E-25
      1.52907319947450E-25   0.00000000000000E+00   1.69413155406666E-08   0.00000000000000E+00   0.00000000000000E+00
      0.00000000000000E+00   0.00000000000000E+00  -4.03575842018155E-12  -1.22173219091460E-07  -1.22177254849880E-07
     -1.17194199750272E-07   1.12201897123286E+01   1.12201897123286E+01   0.00000000000000E+00   0.00000000000000E+00
      1.22175590592758E-07   1.66425712223823E-12   1.22177254849880E-07   1.00252884209605E-07   3.00000000000000E+02
     -1.34121793352662E-06   3.00000000000057E+02   3.00000000001823E+02   3.00000000003559E+02
      8.71746115805541E-03
      0.00000000000000E+00   0.00000000000000E+00   0.00000000000000E+00   0.00000000000000E+00  -1.35233917531326E-24
      1.35233917531326E-24   0.00000000000000E+00   1.68776057501911E-08   0.00000000000000E+00   0.00000000000000E+00
      0.00000000000000E+00   0.00000000000000E+00  -4.04046309100678E-12  -1.33011549387078E-07  -1.33015589850169E-07
     -1.25785439192504E-07   1.30761917370831E+01   1.30761917370831E+01   0.00000000000000E+00   0.00000000000000E+00
      1.33013916140636E-07   1.67370953132683E-12   1.33015589850168E-07   1.08907833442311E-07   3.00000000000000E+02
     -1.70773144996034E-06   3.00000000000073E+02   3.00000000002357E+02   3.00000000004640E+02
      1.01156493500371E-02
      0.00000000000000E+00   0.00000000000000E+00   0.00000000000000E+00   0.00000000000000E+00  -9.26363569703812E-24
      9.26363569703812E-24   0.00000000000000E+00   1.68074324872339E-08   0.00000000000000E+00   0.00000000000000E+00
      0.00000000000000E+00   0.00000000000000E+00  -4.04395608412344E-12  -1.60591874993508E-07  -1.60595918949592E-07
     -1.34379419841618E-07   1.51734740250557E+01   1.51734740250557E+01   0.00000000000000E+00   0.00000000000000E+00
      1.60594233153865E-07   1.68579572726133E-12   1.60595918949592E-07   1.17571987354382E-07   3.00000000000000E+02
     -2.40317646412101E-06   3.00000000000105E+02   3.00000000003338E+02   3.00000000006315E+02
      1.16956020069764E-02
      0.00000000000000E+00   0.00000000000000E+00   0.00000000000000E+00   0.00000000000000E+00  -1.42443204536132E-24
      1.42443204536132E-24   0.00000000000000E+00   1.67337022808044E-08   0.00000000000000E+00   0.00000000000000E+00
      0.00000000000000E+00   0.00000000000000E+00  -4.04818107663614E-12  -1.64957486701175E-07  -1.64961534882252E-07
     -1.43672236713316E-07   1.75434030104647E+01   1.75434030104647E+01   0.00000000000000E+00   0.00000000000000E+00
      1.64959837833249E-07   1.69704900128009E-12   1.64961534882251E-07   1.26938534432509E-07   3.00000000000000E+02
     -2.84974660506523E-06   3.00000000000126E+02   3.00000000003942E+02   3.00000000007508E+02
      1.34809485093179E-02
      0.00000000000000E+00   0.00000000000000E+00   0.00000000000000E+00   0.00000000000000E+00  -1.71027594607417E-24
      1.71027594607417E-24   0.00000000000000E+00   1.66529565152820E-08   0.00000000000000E+00   0.00000000000000E+00
      0.00000000000000E+00   0.00000000000000E+00  -4.05250013774555E-12  -1.77045881784597E-07  -1.77049934284735E-07
     -1.53542236535554E-07   2.02214227639768E+01   2.02214227639768E+01   0.00000000000000E+00   0.00000000000000E+00
      1.77048280468406E-07   1.65381632840688E-12   1.77049934284735E-07   1.36889280020271E-07   3.00000000000000E+02
     -3.54058989697836E-06   3.00000000000157E+02   3.00000000004932E+02   3.00000000009338E+02
      1.54983900569637E-02
      0.00000000000000E+00   0.00000000000000E+00   0.00000000000000E+00   0.00000000000000E+00  -1.36483321904600E-24
      1.36483321904600E-24   0.00000000000000E+00   1.65677706664263E-08   0.00000000000000E+00   0.00000000000000E+00
      0.00000000000000E+00   0.00000000000000E+00  -4.05740886173993E-12  -2.00760208052871E-07  -2.00764265461733E-07
     -1.63659874880007E-07   2.32475850854456E+01   2.32475850854456E+01   0.00000000000000E+00   0.00000000000000E+00
      2.00762531214235E-07   1.73424749753107E-12   2.00764265461733E-07   1.47092104213582E-07   3.00000000000000E+02
     -4.61935367703055E-06   3.00000000000208E+02   3.00000000006446E+02   3.00000000012104E+02
      1.77861687719941E-02
      0.00000000000000E+00   0.00000000000000E+00   0.00000000000000E+00   0.00000000000000E+00   1.53510742102340E-25
     -1.53510742102340E-25   0.00000000000000E+00   1.64746212777527E-08   0.00000000000000E+00   0.00000000000000E+00
      0.00000000000000E+00   0.00000000000000E+00  -4.06266050424147E-12  -2.08641143835882E-07  -2.08645206496386E-07
     -1.74676344437476E-07   2.66792531579911E+01   2.66792531579911E+01   0.00000000000000E+00   0.00000000000000E+00
      2.08643459975080E-07   1.74652130559265E-12   2.08645206496385E-07   1.58201723159723E-07   3.00000000000000E+02
     -5.51191774220851E-06   3.00000000000248E+02   3.00000000007698E+02   3.00000000014376E+02
      2.03713587199784E-02
      0.00000000000000E+00   0.00000000000000E+00   0.00000000000000E+00   0.00000000000000E+00  -3.16264663704736E-24
      3.16264663704736E-24   0.00000000000000E+00   1.63759622024160E-08   0.00000000000000E+00   0.00000000000000E+00
      0.00000000000000E+00   0.00000000000000E+00  -4.06857087502903E-12  -2.15384174958243E-07  -2.15388243529118E-07
     -1.86727504574055E-07   3.05570380799676E+01   3.05570380799676E+01   0.00000000000000E+00   0.00000000000000E+00
      2.15386484371861E-07   1.75915725671445E-12   2.15388243529118E-07   1.70351542371641E-07   3.00000000000000E+02
     -6.52631659973920E-06   3.00000000000294E+02   3.00000000009130E+02   3.00000000017144E+02
      2.32926233612007E-02
      0.00000000000000E+00   0.00000000000000E+00   0.00000000000000E+00   0.00000000000000E+00  -5.71807092605961E-24
      5.71807092605961E-24   0.00000000000000E+00   1.62655594422376E-08   0.00000000000000E+00   0.00000000000000E+00
      0.00000000000000E+00   0.00000000000000E+00  -4.07363371021508E-12  -2.17032012052209E-07  -2.17036085685919E-07
     -2.00132599452265E-07   3.49389350418010E+01   3.49389350418010E+01   0.00000000000000E+00   0.00000000000000E+00
      2.17034312144328E-07   1.77354159085020E-12   2.17036085685919E-07   1.83867040010027E-07   3.00000000000000E+02
     -7.51700298223743E-06   3.00000000000340E+02   3.00000000010521E+02   3.00000000019769E+02
      2.65819673472170E-02
      0.00000000000000E+00   0.00000000000000E+00   0.00000000000000E+00   0.00000000000000E+00   1.24693760206328E-24
     -1.24693760206328E-24   0.00000000000000E+00   1.61474935709032E-08   0.00000000000000E+00   0.00000000000000E+00
      0.00000000000000E+00   0.00000000000000E+00  -4.07846959023406E-12  -2.29994985572466E-07  -2.29999064042057E-07
     -2.14414497968786E-07   3.98729510208255E+01   3.98729510208255E+01   0.00000000000000E+00   0.00000000000000E+00
      2.29998083863430E-07   9.80178625928400E-13   2.29999064042056E-07   1.98267004397880E-07   3.00000000000000E+02
     -9.09620507367079E-06   3.00000000000409E+02   3.00000000012745E+02   3.00000000024399E+02
      3.02989260514154E-02
      0.00000000000000E+00   0.00000000000000E+00   0.00000000000000E+00   0.00000000000000E+00  -1.29823668482957E-24
      1.29823668482957E-24   0.00000000000000E+00   1.60296642875415E-08   0.00000000000000E+00   0.00000000000000E+00
      0.00000000000000E+00   0.00000000000000E+00  -4.07012233186041E-12  -2.33616315684950E-07  -2.33620385807282E-07
     -2.29931506984936E-07   4.54483890771231E+01   4.54483890771231E+01   0.00000000000000E+00   0.00000000000000E+00
      2.33618570620268E-07   1.81518701330466E-12   2.33620385807282E-07   2.13901842697390E-07   3.00000000000000E+02
     -1.05612582528291E-05   3.00000000000475E+02   3.00000000014796E+02   3.00000000028394E+02
      3.45139572219764E-02
      0.00000000000000E+00   0.00000000000000E+00   0.00000000000000E+00   0.00000000000000E+00  -1.47982579135356E-24
      1.47982579135356E-24   0.00000000000000E+00   1.58947562751532E-08   0.00000000000000E+00   0.00000000000000E+00
      0.00000000000000E+00   0.00000000000000E+00  -4.09689759956541E-12  -2.74527537609678E-07  -2.74531634507278E-07
     -2.46463939291463E-07   5.17709358329646E+01   5.17709358329646E+01   0.00000000000000E+00   0.00000000000000E+00
      2.74529765923845E-07   1.86858343249098E-12   2.74531634507278E-07   2.30569183016308E-07   3.00000000000000E+02
     -1.41474936497919E-05   3.00000000000648E+02   3.00000000019831E+02   3.00000000037036E+02
      3.92600823200281E-02
      0.00000000000000E+00   0.00000000000000E+00   0.00000000000000E+00   0.00000000000000E+00  -9.04111374870875E-25
      9.04111374870875E-25   0.00000000000000E+00   1.57490227472496E-08   0.00000000000000E+00   0.00000000000000E+00
      0.00000000000000E+00   0.00000000000000E+00  -4.10576194532565E-12  -2.95564495409514E-07  -2.95568601171459E-07
     -2.62609064134724E-07   5.88901234800421E+01   5.88901234800421E+01   0.00000000000000E+00   0.00000000000000E+00
      2.95566709070732E-07   1.89210072505405E-12   2.95568601171457E-07   2.46860041387471E-07   3.00000000000000E+02
     -1.73332624853763E-05   3.00000000000791E+02   3.00000000024302E+02   3.00000000045293E+02
      4.46042191804342E-02
      0.00000000000000E+00   0.00000000000000E+00   0.00000000000000E+00   0.00000000000000E+00  -4.11036707142417E-24
      4.11036707142417E-24   0.00000000000000E+00   1.55999292986779E-08   0.00000000000000E+00   0.00000000000000E+00
      0.00000000000000E+00   0.00000000000000E+00  -4.11614994458396E-12  -2.99714009987938E-07  -2.99718126137883E-07
     -2.79893448406529E-07   6.69063287706514E+01   6.69063287706514E+01   0.00000000000000E+00   0.00000000000000E+00
      2.99716217956834E-07   1.90818104589477E-12   2.99718126137880E-07   2.64293519107850E-07   3.00000000000000E+02
     -1.99756755952709E-05   3.00000000000913E+02   3.00000000028012E+02   3.00000000052191E+02
      5.06430938326932E-02
      0.00000000000000E+00   0.00000000000000E+00   0.00000000000000E+00   0.00000000000000E+00  -3.51843587362283E-24
      3.51843587362283E-24   0.00000000000000E+00   1.54283176380685E-08   0.00000000000000E+00   0.00000000000000E+00
      0.00000000000000E+00   0.00000000000000E+00  -4.12736152225019E-12  -3.02437462026581E-07  -3.02441589388103E-07
     -2.99235950543970E-07   7.59646407490398E+01   7.59646407490398E+01   0.00000000000000E+00   0.00000000000000E+00
      3.02439663137485E-07   1.92625061705034E-12   3.02441589388102E-07   2.83807632905900E-07   3.00000000000000E+02
     -2.29030802384021E-05   3.00000000001047E+02   3.00000000032107E+02   3.00000000059778E+02
      5.74428666911369E-02
      0.00000000000000E+00   0.00000000000000E+00   0.00000000000000E+00   0.00000000000000E+00  -2.38511758096884E-24
      2.38511758096884E-24   0.00000000000000E+00   1.52313312055141E-08   0.00000000000000E+00   0.00000000000000E+00
      0.00000000000000E+00   0.00000000000000E+00  -4.14110262936827E-12  -3.06924969580207E-07  -3.06929110682836E-07
     -3.20749463446940E-07   8.61643000367053E+01   8.61643000367053E+01   0.00000000000000E+00   0.00000000000000E+00
      3.06927160451229E-07   1.95023160366714E-12   3.06929110682833E-07   3.05518132241424E-07   3.00000000000000E+02
     -2.63758285326209E-05   3.00000000001206E+02   3.00000000036991E+02   3.00000000068957E+02
      6.50994109297444E-02
      0.00000000000000E+00   0.00000000000000E+00   0.00000000000000E+00   0.00000000000000E+00  -1.08223693001340E-24
      1.08223693001340E-24   0.00000000000000E+00   1.50300279153740E-08   0.00000000000000E+00   0.00000000000000E+00
      0.00000000000000E+00   0.00000000000000E+00  -4.15600094450444E-12  -3.37880408869477E-07  -3.37884564870422E-07
     -3.43487438016670E-07   9.76491163946166E+01   9.76491163946166E+01   0.00000000000000E+00   0.00000000000000E+00
      3.37882571100435E-07   1.99376998448103E-12   3.37884564870419E-07   3.28457410101292E-07   3.00000000000000E+02
     -3.29131580676091E-05   3.00000000001486E+02   3.00000000046163E+02   3.00000000089117E+02
      7.37206797424164E-02
      0.00000000000000E+00   0.00000000000000E+00   0.00000000000000E+00   0.00000000000000E+00  -2.61779153914791E-24
      2.61779153914791E-24   0.00000000000000E+00   1.48289393160233E-08   0.00000000000000E+00   0.00000000000000E+00
      0.00000000000000E+00   0.00000000000000E+00  -4.17334503624069E-12  -4.23161967699722E-07  -4.23166141044758E-07
     -3.65018091192789E-07   1.10581019613625E+02   1.10581019613625E+02   0.00000000000000E+00   0.00000000000000E+00
      4.23164082940960E-07   2.05810379622078E-12   4.23166141044756E-07   3.50189151876766E-07   3.00000000000000E+02
     -4.66902641459266E-05   3.00000000002132E+02   3.00000000065448E+02   3.00000000122011E+02
      8.34627135007359E-02
      0.00000000000000E+00   0.00000000000000E+00   0.00000000000000E+00   0.00000000000000E+00  -3.96357540442089E-25
      3.96357540442089E-25   0.00000000000000E+00   1.45938254819517E-08   0.00000000000000E+00   0.00000000000000E+00
      0.00000000000000E+00   0.00000000000000E+00  -4.19790272306177E-12  -4.32469714660457E-07  -4.32473912563180E-07
     -3.87940648731528E-07   1.25194070251104E+02   1.25194070251104E+02   0.00000000000000E+00   0.00000000000000E+00
      4.32471829697606E-07   2.08286557292161E-12   4.32473912563179E-07   3.73346823249572E-07   3.00000000000000E+02
     -5.40391558169468E-05   3.00000000002470E+02   3.00000000075735E+02   3.00000000140281E+02
      9.43932753775703E-02
      0.00000000000000E+00   0.00000000000000E+00   0.00000000000000E+00   0.00000000000000E+00  -6.86471309551310E-24
      6.86471309551310E-24   0.00000000000000E+00   1.43217132971696E-08   0.00000000000000E+00   0.00000000000000E+00
      0.00000000000000E+00   0.00000000000000E+00  -4.23602676240729E-12  -4.45186079183549E-07  -4.45190315210312E-07
     -4.13221805090348E-07   1.41589913066355E+02   1.41589913066355E+02   0.00000000000000E+00   0.00000000000000E+00
      4.45188203547996E-07   2.11166231607236E-12   4.45190315210312E-07   3.98900091793175E-07   3.00000000000000E+02
     -6.29422999960101E-05   3.00000000002882E+02   3.00000000088177E+02   3.00000000162097E+02
      1.06657365803378E-01
      0.00000000000000E+00   0.00000000000000E+00   0.00000000000000E+00   0.00000000000000E+00  -2.59387133671631E-24
      2.59387133671631E-24   0.00000000000000E+00   1.40315379974959E-08   0.00000000000000E+00   0.00000000000000E+00
      0.00000000000000E+00   0.00000000000000E+00  -4.30402936679424E-12  -4.98253151514053E-07  -4.98257455543420E-07
     -4.40099576270856E-07   1.59986048705068E+02   1.59986048705068E+02   0.00000000000000E+00   0.00000000000000E+00
      4.98255297738868E-07   2.15780455255639E-12   4.98257455543421E-07   4.26068038273358E-07   3.00000000000000E+02
     -7.95941047297206E-05   3.00000000003646E+02   3.00000000111491E+02   3.00000000207866E+02
      1.20466731622839E-01
      0.00000000000000E+00   0.00000000000000E+00   0.00000000000000E+00   0.00000000000000E+00  -5.01367502056970E-25
      5.01367502056970E-25   0.00000000000000E+00   1.37257948971412E-08   0.00000000000000E+00   0.00000000000000E+00
      0.00000000000000E+00   0.00000000000000E+00  -4.34119772998496E-12  -5.32740409202613E-07  -5.32744750400343E-07
     -4.68771407110735E-07   1.80700097434258E+02   1.80700097434258E+02   0.00000000000000E+00   0.00000000000000E+00
      5.32742552496178E-07   2.19790416489602E-12   5.32744750400343E-07   4.55045612213590E-07   3.00000000000000E+02
     -9.61396164014407E-05   3.00000000004384E+02   3.00000000134617E+02   3.00000000253956E+02
      1.35795127682439E-01
      0.00000000000000E+00   0.00000000000000E+00   0.00000000000000E+00   0.00000000000000E+00  -8.81933380785929E-24
      8.81933380785929E-24   0.00000000000000E+00   1.33813943216956E-08   0.00000000000000E+00   0.00000000000000E+00
      0.00000000000000E+00   0.00000000000000E+00  -4.35745860427844E-12  -5.88639693285966E-07  -5.88644050744570E-07
     -5.00517933827449E-07   2.03692691523659E+02   2.03692691523659E+02   0.00000000000000E+00   0.00000000000000E+00
      5.88641796556329E-07   2.25418824208544E-12   5.88644050744571E-07   4.87136539505758E-07   3.00000000000000E+02
     -1.19765348578003E-04   3.00000000005443E+02   3.00000000167655E+02   3.00000000318730E+02
      1.52993588061311E-01
      0.00000000000000E+00   0.00000000000000E+00   0.00000000000000E+00   0.00000000000000E+00  -1.07870439622575E-24
      1.07870439622575E-24   0.00000000000000E+00   1.29763171574384E-08   0.00000000000000E+00   0.00000000000000E+00
      0.00000000000000E+00   0.00000000000000E+00  -4.37251286421132E-12  -8.22941029327996E-07  -8.22945401840860E-07
     -5.34345433462279E-07   2.29490382091967E+02   2.29490382091967E+02   0.00000000000000E+00   0.00000000000000E+00
      8.22942978809507E-07   2.42303134513974E-12   8.22945401840852E-07   5.21369116304832E-07   3.00000000000000E+02
     -1.88660931845819E-04   3.00000000008623E+02   3.00000000263983E+02   3.00000000493812E+02
      1.72290260606405E-01
      0.00000000000000E+00   0.00000000000000E+00   0.00000000000000E+00   0.00000000000000E+00  -1.36390274986542E-24
      1.36390274986542E-24   0.00000000000000E+00   1.25060389704693E-08   0.00000000000000E+00   0.00000000000000E+00
      0.00000000000000E+00   0.00000000000000E+00  -4.37174700185881E-12  -1.59688252214673E-06  -1.59688689389373E-06
     -5.67804632681463E-07   2.58435390909608E+02   2.58435390909608E+02   0.00000000000000E+00   0.00000000000000E+00
      1.59688429887204E-06   2.59502168972902E-12   1.59688689389373E-06   5.55298593710990E-07   3.00000000000000E+02
     -4.12306591015429E-04   3.00000000017770E+02   3.00000000576765E+02   3.00000001257256E+02
      1.77683680582759E-01
      0.00000000000000E+00   0.00000000000000E+00   0.00000000000000E+00   0.00000000000000E+00  -4.81382754429087E-24
      4.81382754429087E-24   0.00000000000000E+00   1.23747725828979E-08   0.00000000000000E+00   0.00000000000000E+00
      0.00000000000000E+00   0.00000000000000E+00  -4.21625559247734E-12  -5.07629124148383E-06  -5.07629545773942E-06
     -5.76883298698367E-07   2.66525520874139E+02   2.66525520874139E+02   0.00000000000000E+00   0.00000000000000E+00
      5.07629229691315E-06   3.16082622912152E-12   5.07629545773938E-06   5.64508526115468E-07   3.00000000000000E+02
     -1.35174148073320E-03   3.00000000053478E+02   3.00000001891896E+02   3.00000005161261E+02
      1.78061894158601E-01
      0.00000000000000E+00   0.00000000000000E+00   0.00000000000000E+00   0.00000000000000E+00  -1.30821444301862E-23
      1.30821444301862E-23   0.00000000000000E+00   1.23657009687673E-08   0.00000000000000E+00   0.00000000000000E+00
      0.00000000000000E+00   0.00000000000000E+00  -4.00501085871403E-12  -7.92133822071084E-06  -7.92134222572170E-06
     -5.77508324145197E-07   2.67092841237901E+02   2.67092841237901E+02   0.00000000000000E+00   0.00000000000000E+00
      7.92133932185358E-06   2.90386807103287E-12   7.92134222572165E-06   5.65142623176427E-07   3.00000000000000E+02
     -2.11382596681241E-03   3.00000000081994E+02   3.00000002958880E+02   3.00000008608786E+02
      1.78277097683255E-01