DF-ISE text

Info {
  version   = 1.0
  type      = xyplot
  datasets  = [
    "time"
    "Gate OuterVoltage" "Gate InnerVoltage" "Gate QuasiFermiPotential" "Gate DisplacementCurrent" "Gate eCurrent"
    "Gate hCurrent" "Gate TotalCurrent" "Gate Charge" "Emitter OuterVoltage" "Emitter InnerVoltage"
    "Emitter QuasiFermiPotential" "Emitter DisplacementCurrent" "Emitter eCurrent" "Emitter hCurrent" "Emitter TotalCurrent"
    "Emitter Charge" "Collector OuterVoltage" "Collector InnerVoltage" "Collector QuasiFermiPotential" "Collector DisplacementCurrent"
    "Collector eCurrent" "Collector hCurrent" "Collector TotalCurrent" "Collector Charge" ]
  functions = [
    Time
    OuterVoltage InnerVoltage QuasiFermiPotential DisplacementCurrent eCurrent
    hCurrent TotalCurrent Charge OuterVoltage InnerVoltage
    QuasiFermiPotential DisplacementCurrent eCurrent hCurrent TotalCurrent
    Charge OuterVoltage InnerVoltage QuasiFermiPotential DisplacementCurrent
    eCurrent hCurrent TotalCurrent Charge ]
}

Data {
      0.00000000000000E+00
      1.50000000000000E+01   1.50000000000000E+01   0.00000000000000E+00   0.00000000000000E+00  -6.41505156899704E-26
      6.41505156899704E-26   0.00000000000000E+00   4.35857536629048E-07   0.00000000000000E+00   0.00000000000000E+00
      0.00000000000000E+00   0.00000000000000E+00   2.02884677348352E-13   7.03671574916067E-17   2.02955044505844E-13
     -3.41542206631767E-07  -2.95255343362587E-20   0.00000000000000E+00   0.00000000000000E+00   0.00000000000000E+00
     -2.02884678572050E-13  -7.03659337835727E-17  -2.02955044505834E-13  -9.43153299972776E-08
      3.33333333333333E-03
      1.50000000000000E+01   1.50000000000000E+01   0.00000000000000E+00   0.00000000000000E+00  -7.25977215609753E-26
      7.25977215609753E-26   0.00000000000000E+00   4.35857513143325E-07   0.00000000000000E+00   4.55458786570023E-10
      0.00000000000000E+00   0.00000000000000E+00  -4.55458824090089E-04  -6.85383135219160E-12  -4.55458830943920E-04
     -3.41542838735307E-07   4.00000000000000E-04   3.99999999544566E-04   0.00000000000000E+00   0.00000000000000E+00
      4.55458758351068E-04   7.25928493956369E-11   4.55458830943917E-04  -9.43146744080169E-08
      6.66666666666667E-03
      1.50000000000000E+01   1.50000000000000E+01   0.00000000000000E+00   0.00000000000000E+00  -7.80809776064552E-26
      7.80809776064552E-26   0.00000000000000E+00   4.35857493530177E-07   0.00000000000000E+00   8.35816498904400E-10
      0.00000000000000E+00   0.00000000000000E+00  -8.35816486696512E-04  -1.25739481959207E-11  -8.35816499270460E-04
     -3.41543366603555E-07   7.33999999999241E-04   7.33999999163415E-04   0.00000000000000E+00   0.00000000000000E+00
      8.35816365721530E-04   1.33548929691224E-10   8.35816499270460E-04  -9.43141269266201E-08
      1.00000000000000E-02
      1.50000000000000E+01   1.50000000000000E+01   0.00000000000000E+00   0.00000000000000E+00  -9.07904325284589E-26
      9.07904325284589E-26   0.00000000000000E+00   4.35857473842857E-07   0.00000000000000E+00   1.21761231613397E-09
      0.00000000000000E+00   0.00000000000000E+00  -1.21761225799830E-03  -1.82995401176821E-11  -1.21761227629784E-03
     -3.41543896461305E-07   1.06922333333042E-03   1.06922333211277E-03   0.00000000000000E+00   0.00000000000000E+00
      1.21761208126849E-03   1.95029330825801E-10   1.21761227629782E-03  -9.43135773815511E-08
      1.33333333333333E-02
      1.50000000000000E+01   1.50000000000000E+01   0.00000000000000E+00   0.00000000000000E+00  -8.87386815333528E-26
      8.87386815333528E-26   0.00000000000000E+00   4.35857454087693E-07   0.00000000000000E+00   1.60072344184509E-09
      0.00000000000000E+00   0.00000000000000E+00  -1.60072344285361E-03  -2.40569872163877E-11  -1.60072346691060E-03
     -3.41544428138240E-07   1.40556203888255E-03   1.40556203728182E-03   0.00000000000000E+00   0.00000000000000E+00
      1.60072320986302E-03   2.57047560954239E-10   1.60072346691058E-03  -9.43130259494518E-08
      1.66666666666667E-02
      1.50000000000000E+01   1.50000000000000E+01   0.00000000000000E+00   0.00000000000000E+00  -7.87516464249583E-26
      7.87516464249583E-26   0.00000000000000E+00   4.35857434264441E-07   0.00000000000000E+00   1.98515483565357E-09
      0.00000000000000E+00   0.00000000000000E+00  -1.98515479593103E-03  -2.98287430791576E-11  -1.98515482575977E-03
     -3.41544961640908E-07   1.74302001449821E-03   1.74302001251307E-03   0.00000000000000E+00   0.00000000000000E+00
      1.98515450616805E-03   3.19591708791661E-10   1.98515482575976E-03  -9.43124726235313E-08
      2.00000000000000E-02
      1.50000000000000E+01   1.50000000000000E+01   0.00000000000000E+00   0.00000000000000E+00  -8.01603123410782E-26
      8.01603123410782E-26   0.00000000000000E+00   4.35857414372862E-07   0.00000000000000E+00   2.37091099795153E-09
      0.00000000000000E+00   0.00000000000000E+00  -2.37091089530772E-03  -3.56173544473602E-11  -2.37091093092508E-03
     -3.41545496975615E-07   2.08160098458120E-03   2.08160098221029E-03   0.00000000000000E+00   0.00000000000000E+00
      2.37091054825504E-03   3.82670001619801E-10   2.37091093092505E-03  -9.43119173972456E-08
      2.33333333333333E-02
      1.50000000000000E+01   1.50000000000000E+01   0.00000000000000E+00   0.00000000000000E+00  -6.84527496301834E-26
      6.84527496301834E-26   0.00000000000000E+00   4.35857394412720E-07   0.00000000000000E+00   2.75799642913110E-09
      0.00000000000000E+00   0.00000000000000E+00  -2.75799635881300E-03  -4.14225209739895E-11  -2.75799640023552E-03
     -3.41546034148709E-07   2.42130868623907E-03   2.42130868348107E-03   0.00000000000000E+00   0.00000000000000E+00
      2.75799595394758E-03   4.46287893334182E-10   2.75799640023547E-03  -9.43113602640066E-08
      2.66666666666667E-02
      1.50000000000000E+01   1.50000000000000E+01   0.00000000000000E+00   0.00000000000000E+00  -6.82497570229262E-26
      6.82497570229262E-26   0.00000000000000E+00   4.35857374383773E-07   0.00000000000000E+00   3.14641590511861E-09
      0.00000000000000E+00   0.00000000000000E+00  -3.14641583002208E-03  -4.72445686567839E-11  -3.14641587726665E-03
     -3.41546573166589E-07   2.76214686901522E-03   2.76214686586882E-03   0.00000000000000E+00   0.00000000000000E+00
      3.14641536681507E-03   5.10451539466029E-10   3.14641587726660E-03  -9.43108012171841E-08
      3.00000000000000E-02
      1.50000000000000E+01   1.50000000000000E+01   0.00000000000000E+00   0.00000000000000E+00  -7.81003392664158E-26
      7.81003392664158E-26   0.00000000000000E+00   4.35857354285782E-07   0.00000000000000E+00   3.53617401815091E-09
      0.00000000000000E+00   0.00000000000000E+00  -3.53617398290401E-03  -5.30833719661411E-11  -3.53617403598738E-03
     -3.41547114035673E-07   3.10411929493080E-03   3.10411929139469E-03   0.00000000000000E+00   0.00000000000000E+00
      3.53617346082063E-03   5.75166720592822E-10   3.53617403598735E-03  -9.43102402501082E-08
      3.33333333333333E-02
      1.50000000000000E+01   1.50000000000000E+01   0.00000000000000E+00   0.00000000000000E+00  -6.60464763910159E-26
      6.60464763910159E-26   0.00000000000000E+00   4.35857334118505E-07   0.00000000000000E+00   3.92727563599909E-09
      0.00000000000000E+00   0.00000000000000E+00  -3.92727551632915E-03  -5.89390052621032E-11  -3.92727557526815E-03
     -3.41547656762428E-07   3.44722973852624E-03   3.44722973459899E-03   0.00000000000000E+00   0.00000000000000E+00
      3.92727493482861E-03   6.40439494962880E-10   3.92727557526810E-03  -9.43096773560753E-08
      3.66666666666667E-02
      1.50000000000000E+01   1.50000000000000E+01   0.00000000000000E+00   0.00000000000000E+00  -7.95242646477497E-26
      7.95242646477497E-26   0.00000000000000E+00   4.35857313881694E-07   0.00000000000000E+00   4.31972516721052E-09
      0.00000000000000E+00   0.00000000000000E+00  -4.31972515261267E-03  -6.48115233538922E-11  -4.31972521742419E-03
     -3.41548201353344E-07   3.79148198690290E-03   3.79148198258318E-03   0.00000000000000E+00   0.00000000000000E+00
      4.31972451114810E-03   7.06275980359923E-10   4.31972521742408E-03  -9.43091125283495E-08
      4.00000000000000E-02
      1.50000000000000E+01   1.50000000000000E+01   0.00000000000000E+00   0.00000000000000E+00  -7.36110872023903E-26
      7.36110872023903E-26   0.00000000000000E+00   4.35857293575109E-07   0.00000000000000E+00   4.71352775509050E-09
      0.00000000000000E+00   0.00000000000000E+00  -4.71352763579708E-03  -7.07011478065836E-11  -4.71352770649823E-03
     -3.41548747814946E-07   4.13687983976487E-03   4.13687983505130E-03   0.00000000000000E+00   0.00000000000000E+00
      4.71352693381558E-03   7.72682541606487E-10   4.71352770649812E-03  -9.43085457601610E-08
      4.33333333333333E-02
      1.50000000000000E+01   1.50000000000000E+01   0.00000000000000E+00   0.00000000000000E+00  -8.01779039981006E-26
      8.01779039981006E-26   0.00000000000000E+00   4.35857273198503E-07   0.00000000000000E+00   5.10868780818640E-09
      0.00000000000000E+00   0.00000000000000E+00  -5.10868773196882E-03  -7.66075799210277E-11  -5.10868780857640E-03
     -3.41549296153786E-07   4.48342710946093E-03   4.48342710435228E-03   0.00000000000000E+00   0.00000000000000E+00
      5.10868696891120E-03   8.39665104821889E-10   5.10868780857630E-03  -9.43079770447155E-08
      4.66666666666667E-02
      1.50000000000000E+01   1.50000000000000E+01   0.00000000000000E+00   0.00000000000000E+00  -8.08153910698900E-26
      8.08153910698900E-26   0.00000000000000E+00   4.35857252751627E-07   0.00000000000000E+00   5.50521037795877E-09
      0.00000000000000E+00   0.00000000000000E+00  -5.50521022986308E-03  -8.25310297616900E-11  -5.50521031239411E-03
     -3.41549846376445E-07   4.83112762102660E-03   4.83112761552140E-03   0.00000000000000E+00   0.00000000000000E+00
      5.50520940516381E-03   9.07230187696741E-10   5.50521031239400E-03  -9.43074063751812E-08
      5.00000000000000E-02
      1.50000000000000E+01   1.50000000000000E+01   0.00000000000000E+00   0.00000000000000E+00  -7.58688668652024E-26
      7.58688668652024E-26   0.00000000000000E+00   4.35857232234235E-07   0.00000000000000E+00   5.90310005664448E-09
      0.00000000000000E+00   0.00000000000000E+00  -5.90309993808928E-03  -8.84715380048702E-11  -5.90310002656082E-03
     -3.41550398489531E-07   5.17998521222639E-03   5.17998520632323E-03   0.00000000000000E+00   0.00000000000000E+00
      5.90309905117653E-03   9.75384222649813E-10   5.90310002656076E-03  -9.43068337447023E-08
      5.33333333333333E-02
      1.50000000000000E+01   1.50000000000000E+01   0.00000000000000E+00   0.00000000000000E+00  -6.69205129407790E-26
      6.69205129407790E-26   0.00000000000000E+00   4.35857211646076E-07   0.00000000000000E+00   6.30236180385934E-09
      0.00000000000000E+00   0.00000000000000E+00  -6.30236168632961E-03  -9.44290525921331E-11  -6.30236178075867E-03
     -3.41550952499684E-07   5.53000373359613E-03   5.53000372729374E-03   0.00000000000000E+00   0.00000000000000E+00
      6.30236073662496E-03   1.04413363477740E-09   6.30236178075859E-03  -9.43062591463907E-08
      5.66666666666667E-02
      1.50000000000000E+01   1.50000000000000E+01   0.00000000000000E+00   0.00000000000000E+00  -7.99116370292372E-26
      7.99116370292372E-26   0.00000000000000E+00   4.35857190986900E-07   0.00000000000000E+00   6.70300039552967E-09
      0.00000000000000E+00   0.00000000000000E+00  -6.70300032474036E-03  -1.00403895970225E-10  -6.70300042514426E-03
     -3.41551508413567E-07   5.88118704848549E-03   5.88118704178250E-03   0.00000000000000E+00   0.00000000000000E+00
      6.70299931165890E-03   1.11348531042303E-09   6.70300042514421E-03  -9.43056825733327E-08
      6.00000000000000E-02
      1.50000000000000E+01   1.50000000000000E+01   0.00000000000000E+00   0.00000000000000E+00  -6.78778134825125E-26
      6.78778134825125E-26   0.00000000000000E+00   4.35857170256457E-07   0.00000000000000E+00   7.10502088311603E-09
      0.00000000000000E+00   0.00000000000000E+00  -7.10502072219300E-03  -1.06396024640080E-10  -7.10502082858902E-03
     -3.41552066237874E-07   6.23353903310062E-03   6.23353902599563E-03   0.00000000000000E+00   0.00000000000000E+00
      7.10501964514306E-03   1.18344585799759E-09   7.10502082858892E-03  -9.43051040185818E-08
      6.33333333333333E-02
      1.50000000000000E+01   1.50000000000000E+01   0.00000000000000E+00   0.00000000000000E+00  -6.88468674950607E-26
      6.88468674950607E-26   0.00000000000000E+00   4.35857149454494E-07   0.00000000000000E+00   7.50842795070000E-09
      0.00000000000000E+00   0.00000000000000E+00  -7.50842777143851E-03  -1.12405064439448E-10  -7.50842788384357E-03
     -3.41552625979325E-07   6.58706357654692E-03   6.58706356903844E-03   0.00000000000000E+00   0.00000000000000E+00
      7.50842662982183E-03   1.25402164481032E-09   7.50842788384347E-03  -9.43045234751692E-08
      6.66666666666667E-02
      1.50000000000000E+01   1.50000000000000E+01   0.00000000000000E+00   0.00000000000000E+00  -7.39710784605208E-26
      7.39710784605208E-26   0.00000000000000E+00   4.35857128580759E-07   0.00000000000000E+00   7.91322646605268E-09
      0.00000000000000E+00   0.00000000000000E+00  -7.91322638082776E-03  -1.18431631535797E-10  -7.91322649925939E-03
     -3.41553187644663E-07   6.94176458087197E-03   6.94176457295872E-03   0.00000000000000E+00   0.00000000000000E+00
      7.91322517403912E-03   1.32522011927375E-09   7.91322649925924E-03  -9.43039409360942E-08
      7.00000000000000E-02
      1.50000000000000E+01   1.50000000000000E+01   0.00000000000000E+00   0.00000000000000E+00  -7.36178174134368E-26
      7.36178174134368E-26   0.00000000000000E+00   4.35857107634994E-07   0.00000000000000E+00   8.31942157247932E-09
      0.00000000000000E+00   0.00000000000000E+00  -8.31942148208925E-03  -1.24475323854057E-10  -8.31942160656458E-03
     -3.41553751240660E-07   7.29764596110863E-03   7.29764595278928E-03   0.00000000000000E+00   0.00000000000000E+00
      8.31942020951671E-03   1.39704780389172E-09   8.31942160656452E-03  -9.43033563943324E-08
      7.33333333333333E-02
      1.50000000000000E+01   1.50000000000000E+01   0.00000000000000E+00   0.00000000000000E+00  -6.84550957318757E-26
      6.84550957318757E-26   0.00000000000000E+00   4.35857086616946E-07   0.00000000000000E+00   8.72701813775102E-09
      0.00000000000000E+00   0.00000000000000E+00  -8.72701802473128E-03  -1.30536622887173E-10  -8.72701815526790E-03
     -3.41554316774119E-07   7.65471164531821E-03   7.65471163659117E-03   0.00000000000000E+00   0.00000000000000E+00
      8.72701668575555E-03   1.46951219829750E-09   8.72701815526775E-03  -9.43027698428270E-08
      7.66666666666666E-02
      1.50000000000000E+01   1.50000000000000E+01   0.00000000000000E+00   0.00000000000000E+00  -6.86328043638815E-26
      6.86328043638815E-26   0.00000000000000E+00   4.35857065526359E-07   0.00000000000000E+00   9.13602112148358E-09
      0.00000000000000E+00   0.00000000000000E+00  -9.13602097899681E-03  -1.36615092329055E-10  -9.13602111561190E-03
     -3.41554884251862E-07   8.01296557463385E-03   8.01296556549792E-03   0.00000000000000E+00   0.00000000000000E+00
      9.13601957299166E-03   1.54261997956721E-09   9.13602111561164E-03  -9.43021812744961E-08
      8.00000000000000E-02
      1.50000000000000E+01   1.50000000000000E+01   0.00000000000000E+00   0.00000000000000E+00  -7.53572761343938E-26
      7.53572761343938E-26   0.00000000000000E+00   4.35857044362974E-07   0.00000000000000E+00   9.54643548329281E-09
      0.00000000000000E+00   0.00000000000000E+00  -9.54643533433456E-03  -1.42711137088500E-10  -9.54643547704570E-03
     -3.41555453680747E-07   8.37241170330399E-03   8.37241169375754E-03   0.00000000000000E+00   0.00000000000000E+00
      9.54643386066683E-03   1.61637876251245E-09   9.54643547704559E-03  -9.43015906822248E-08
      8.33333333333333E-02
      1.50000000000000E+01   1.50000000000000E+01   0.00000000000000E+00   0.00000000000000E+00  -7.20489739306924E-26
      7.20489739306924E-26   0.00000000000000E+00   4.35857023126534E-07   0.00000000000000E+00   9.95826627463925E-09
      0.00000000000000E+00   0.00000000000000E+00  -9.95826610140060E-03  -1.48824647137859E-10  -9.95826625022525E-03
     -3.41556025067654E-07   8.73305399873609E-03   8.73305398877783E-03   0.00000000000000E+00   0.00000000000000E+00
      9.95826455942937E-03   1.69079574524011E-09   9.95826625022512E-03  -9.43009980588776E-08
      8.66666666666666E-02
      1.50000000000000E+01   1.50000000000000E+01   0.00000000000000E+00   0.00000000000000E+00  -7.18263902628257E-26
      7.18263902628257E-26   0.00000000000000E+00   4.35857001816778E-07   0.00000000000000E+00   1.03715185469835E-08
      0.00000000000000E+00   0.00000000000000E+00  -1.03715183090488E-02  -1.54955634878807E-10  -1.03715184640045E-02
     -3.41556598419490E-07   9.09489644154031E-03   9.09489643116884E-03   0.00000000000000E+00   0.00000000000000E+00
      1.03715166981260E-02   1.76587834789333E-09   1.03715184640044E-02  -9.43004033972866E-08
      9.00000000000000E-02
      1.50000000000000E+01   1.50000000000000E+01   0.00000000000000E+00   0.00000000000000E+00  -8.08003580583996E-26
      8.08003580583996E-26   0.00000000000000E+00   4.35856980433446E-07   0.00000000000000E+00   1.07861971680965E-08
      0.00000000000000E+00   0.00000000000000E+00  -1.07861970073728E-02  -1.61104352430197E-10  -1.07861971684772E-02
     -3.41557173743188E-07   9.45794302557356E-03   9.45794301478727E-03   0.00000000000000E+00   0.00000000000000E+00
      1.07861953268427E-02   1.84163433161396E-09   1.07861971684770E-02  -9.42998066902560E-08
      9.33333333333333E-02
      1.50000000000000E+01   1.50000000000000E+01   0.00000000000000E+00   0.00000000000000E+00  -6.88960076544212E-26
      6.88960076544212E-26   0.00000000000000E+00   4.35856958976277E-07   0.00000000000000E+00   1.12023074649731E-08
      0.00000000000000E+00   0.00000000000000E+00  -1.12023072639899E-02  -1.67270680631406E-10  -1.12023074312606E-02
     -3.41557751045711E-07   9.82219775798348E-03   9.82219774678111E-03   0.00000000000000E+00   0.00000000000000E+00
      1.12023055131893E-02   1.91807118903646E-09   1.12023074312605E-02  -9.42992079305652E-08
      9.66666666666666E-02
      1.50000000000000E+01   1.50000000000000E+01   0.00000000000000E+00   0.00000000000000E+00  -7.14004402864358E-26
      7.14004402864358E-26   0.00000000000000E+00   4.35856937445007E-07   0.00000000000000E+00   1.16198543053844E-08
      0.00000000000000E+00   0.00000000000000E+00  -1.16198541697136E-02  -1.73454483908371E-10  -1.16198543431681E-02
     -3.41558330334044E-07   1.01876646592528E-02   1.01876646476330E-02   0.00000000000000E+00   0.00000000000000E+00
      1.16198523479715E-02   1.99519650083841E-09   1.16198543431680E-02  -9.42986071109618E-08
      9.99999999999999E-02
      1.50000000000000E+01   1.50000000000000E+01   0.00000000000000E+00   0.00000000000000E+00  -7.05941429312546E-26
      7.05941429312546E-26   0.00000000000000E+00   4.35856915839374E-07   0.00000000000000E+00   1.20388430163251E-08
      0.00000000000000E+00   0.00000000000000E+00  -1.20388428337124E-02  -1.79656220522981E-10  -1.20388430133686E-02
     -3.41558911615205E-07   1.05543477632434E-02   1.05543477512046E-02   0.00000000000000E+00   0.00000000000000E+00
      1.20388409403499E-02   2.07301854761243E-09   1.20388430133685E-02  -9.42980042241677E-08
      1.03333333333333E-01
      1.50000000000000E+01   1.50000000000000E+01   0.00000000000000E+00   0.00000000000000E+00  -7.92890356154576E-26
      7.92890356154576E-26   0.00000000000000E+00   4.35856894159113E-07   0.00000000000000E+00   1.24592786492558E-08
      0.00000000000000E+00   0.00000000000000E+00  -1.24592783828352E-02  -1.85875661234105E-10  -1.24592785687108E-02
     -3.41559494896235E-07   1.09222511172415E-02   1.09222511047822E-02   0.00000000000000E+00   0.00000000000000E+00
      1.24592764171657E-02   2.15154503018797E-09   1.24592785687108E-02  -9.42973992628757E-08
      1.06666666666667E-01
      1.50000000000000E+01   1.50000000000000E+01   0.00000000000000E+00   0.00000000000000E+00  -7.77319566550477E-26
      7.77319566550477E-26   0.00000000000000E+00   4.35856872403957E-07   0.00000000000000E+00   1.28811661637922E-08
      0.00000000000000E+00   0.00000000000000E+00  -1.28811659695457E-02  -1.92112988992434E-10  -1.28811661616587E-02
     -3.41560080184203E-07   1.12913787820015E-02   1.12913787691203E-02   0.00000000000000E+00   0.00000000000000E+00
      1.28811639308745E-02   2.23078417105405E-09   1.28811661616586E-02  -9.42967922197536E-08
      1.10000000000000E-01
      1.50000000000000E+01   1.50000000000000E+01   0.00000000000000E+00   0.00000000000000E+00  -7.18898557576259E-26
      7.18898557576259E-26   0.00000000000000E+00   4.35856850573640E-07   0.00000000000000E+00   1.33045109787740E-08
      0.00000000000000E+00   0.00000000000000E+00  -1.33045107602442E-02  -1.98368129148476E-10  -1.33045109586123E-02
     -3.41560667486204E-07   1.16617348317913E-02   1.16617348184868E-02   0.00000000000000E+00   0.00000000000000E+00
      1.33045086478682E-02   2.31074404627173E-09   1.33045109586122E-02  -9.42961830874357E-08
      1.13333333333333E-01
      1.50000000000000E+01   1.50000000000000E+01   0.00000000000000E+00   0.00000000000000E+00  -7.93485576832824E-26
      7.93485576832824E-26   0.00000000000000E+00   4.35856828667896E-07   0.00000000000000E+00   1.37293181456615E-08
      0.00000000000000E+00   0.00000000000000E+00  -1.37293179459450E-02  -2.04641055560513E-10  -1.37293181505860E-02
     -3.41561256809363E-07   1.20333233544373E-02   1.20333233407080E-02   0.00000000000000E+00   0.00000000000000E+00
      1.37293157591530E-02   2.39143289335276E-09   1.37293181505859E-02  -9.42955718585316E-08
      1.16666666666667E-01
      1.50000000000000E+01   1.50000000000000E+01   0.00000000000000E+00   0.00000000000000E+00  -7.13961422835201E-26
      7.13961422835201E-26   0.00000000000000E+00   4.35856806686453E-07   0.00000000000000E+00   1.41555928996049E-08
      0.00000000000000E+00   0.00000000000000E+00  -1.41555927354258E-02  -2.10932062856961E-10  -1.41555929463578E-02
     -3.41561848160830E-07   1.24061484513693E-02   1.24061484372138E-02   0.00000000000000E+00   0.00000000000000E+00
      1.41555904734984E-02   2.47285938532096E-09   1.41555929463578E-02  -9.42949585256220E-08
      1.20000000000000E-01
      1.50000000000000E+01   1.50000000000000E+01   0.00000000000000E+00   0.00000000000000E+00  -7.06583849095583E-26
      7.06583849095583E-26   0.00000000000000E+00   4.35856784629042E-07   0.00000000000000E+00   1.45833405675989E-08
      0.00000000000000E+00   0.00000000000000E+00  -1.45833403585828E-02  -2.17241071111570E-10  -1.45833405758239E-02
     -3.41562441547784E-07   1.27802142376659E-02   1.27802142230824E-02   0.00000000000000E+00   0.00000000000000E+00
      1.45833380207918E-02   2.55503193719415E-09   1.45833405758238E-02  -9.42943430812590E-08
      1.23333333333333E-01
      1.50000000000000E+01   1.50000000000000E+01   0.00000000000000E+00   0.00000000000000E+00  -7.10033745788137E-26
      7.10033745788137E-26   0.00000000000000E+00   4.35856762495395E-07   0.00000000000000E+00   1.50125662929487E-08
      0.00000000000000E+00   0.00000000000000E+00  -1.50125660653800E-02  -2.23568019860377E-10  -1.50125662889480E-02
     -3.41563036977427E-07   1.31555248420997E-02   1.31555248270871E-02   0.00000000000000E+00   0.00000000000000E+00
      1.50125636509888E-02   2.63795910186819E-09   1.50125662889479E-02  -9.42937255179665E-08
      1.26666666666667E-01
      1.50000000000000E+01   1.50000000000000E+01   0.00000000000000E+00   0.00000000000000E+00  -7.23477261469537E-26
      7.23477261469537E-26   0.00000000000000E+00   4.35856740285236E-07   0.00000000000000E+00   1.54432754026492E-08
      0.00000000000000E+00   0.00000000000000E+00  -1.54432751259959E-02  -2.29913137361881E-10  -1.54432753559090E-02
     -3.41563634456997E-07   1.35320844071833E-02   1.35320843917400E-02   0.00000000000000E+00   0.00000000000000E+00
      1.54432726342591E-02   2.72164984126628E-09   1.54432753559089E-02  -9.42931058282388E-08
      1.30000000000000E-01
      1.50000000000000E+01   1.50000000000000E+01   0.00000000000000E+00   0.00000000000000E+00  -7.22714585467260E-26
      7.22714585467260E-26   0.00000000000000E+00   4.35856717998293E-07   0.00000000000000E+00   1.58754730400056E-08
      0.00000000000000E+00   0.00000000000000E+00  -1.58754728301947E-02  -2.36276512958585E-10  -1.58754730664712E-02
     -3.41564233993750E-07   1.39098970892147E-02   1.39098970733392E-02   0.00000000000000E+00   0.00000000000000E+00
      1.58754702603578E-02   2.80611310061894E-09   1.58754730664709E-02  -9.42924840045422E-08
      1.33333333333333E-01
      1.50000000000000E+01   1.50000000000000E+01   0.00000000000000E+00   0.00000000000000E+00  -6.34186405428662E-26
      6.34186405428662E-26   0.00000000000000E+00   4.35856695634295E-07   0.00000000000000E+00   1.63091647157022E-08
      0.00000000000000E+00   0.00000000000000E+00  -1.63091644908277E-02  -2.42657828079551E-10  -1.63091647334855E-02
     -3.41564835594979E-07   1.42889670583231E-02   1.42889670420141E-02   0.00000000000000E+00   0.00000000000000E+00
      1.63091618421278E-02   2.89135754141747E-09   1.63091647334853E-02  -9.42918600393140E-08
      1.36666666666667E-01
      1.50000000000000E+01   1.50000000000000E+01   0.00000000000000E+00   0.00000000000000E+00  -6.80829558229630E-26
      6.80829558229630E-26   0.00000000000000E+00   4.35856673192963E-07   0.00000000000000E+00   1.67443556648890E-08
      0.00000000000000E+00   0.00000000000000E+00  -1.67443554395962E-02  -2.49057519255175E-10  -1.67443556886537E-02
     -3.41565439267997E-07   1.46692984985154E-02   1.46692984817710E-02   0.00000000000000E+00   0.00000000000000E+00
      1.67443527112607E-02   2.97739270642836E-09   1.67443556886535E-02  -9.42912339249638E-08
      1.40000000000000E-01
      1.50000000000000E+01   1.50000000000000E+01   0.00000000000000E+00   0.00000000000000E+00  -7.34535655776010E-26
      7.34535655776010E-26   0.00000000000000E+00   4.35856650674023E-07   0.00000000000000E+00   1.71810512145607E-08
      0.00000000000000E+00   0.00000000000000E+00  -1.71810510275587E-02  -2.55475437812836E-10  -1.71810512830342E-02
     -3.41566045020151E-07   1.50508956077217E-02   1.50508955905406E-02   0.00000000000000E+00   0.00000000000000E+00
      1.71810482188062E-02   3.06422768141949E-09   1.71810512830338E-02  -9.42906056538703E-08
      1.43333333333333E-01
      1.50000000000000E+01   1.50000000000000E+01   0.00000000000000E+00   0.00000000000000E+00  -7.92681588357022E-26
      7.92681588357022E-26   0.00000000000000E+00   4.35856628077196E-07   0.00000000000000E+00   1.76192568754015E-08
      0.00000000000000E+00   0.00000000000000E+00  -1.76192566291555E-02  -2.61911788058655E-10  -1.76192568910673E-02
     -3.41566652858810E-07   1.54337625978422E-02   1.54337625802229E-02   0.00000000000000E+00   0.00000000000000E+00
      1.76192537391950E-02   3.15187203537729E-09   1.76192568910670E-02  -9.42899752183844E-08
      1.46666666666667E-01
      1.50000000000000E+01   1.50000000000000E+01   0.00000000000000E+00   0.00000000000000E+00  -6.47693964740624E-26
      6.47693964740624E-26   0.00000000000000E+00   4.35856605402205E-07   0.00000000000000E+00   1.80589779744063E-08
      0.00000000000000E+00   0.00000000000000E+00  -1.80589776374909E-02  -2.68366396923568E-10  -1.80589779058573E-02
     -3.41567262791378E-07   1.58179036947935E-02   1.58179036767345E-02   0.00000000000000E+00   0.00000000000000E+00
      1.80589746655219E-02   3.24033509228032E-09   1.80589779058570E-02  -9.42893426108269E-08
      1.50000000000000E-01
      1.50000000000000E+01   1.50000000000000E+01   0.00000000000000E+00   0.00000000000000E+00  -7.55654947730809E-26
      7.55654947730809E-26   0.00000000000000E+00   4.35856582648770E-07   0.00000000000000E+00   1.85002197467250E-08
      0.00000000000000E+00   0.00000000000000E+00  -1.85002194677106E-02  -2.74839506541907E-10  -1.85002197425501E-02
     -3.41567874825279E-07   1.62033231385551E-02   1.62033231200550E-02   0.00000000000000E+00   0.00000000000000E+00
      1.85002164129231E-02   3.32962672579549E-09   1.85002197425498E-02  -9.42887078234908E-08
      1.53333333333333E-01
      1.50000000000000E+01   1.50000000000000E+01   0.00000000000000E+00   0.00000000000000E+00  -7.49584625716641E-26
      7.49584625716641E-26   0.00000000000000E+00   4.35856559816611E-07   0.00000000000000E+00   1.89429878867314E-08
      0.00000000000000E+00   0.00000000000000E+00  -1.89429875554807E-02  -2.81331098841204E-10  -1.89429878368118E-02
     -3.41568488967972E-07   1.65900251832164E-02   1.65900251642734E-02   0.00000000000000E+00   0.00000000000000E+00
      1.89429844170547E-02   3.41975668605872E-09   1.89429878368114E-02  -9.42880708486385E-08
      1.56666666666667E-01
      1.50000000000000E+01   1.50000000000000E+01   0.00000000000000E+00   0.00000000000000E+00  -6.76970363181673E-26
      6.76970363181673E-26   0.00000000000000E+00   4.35856536905447E-07   0.00000000000000E+00   1.93872876295754E-08
      0.00000000000000E+00   0.00000000000000E+00  -1.93872873572335E-02  -2.87841148102071E-10  -1.93872876450746E-02
     -3.41569105226942E-07   1.69780140970236E-02   1.69780140776362E-02   0.00000000000000E+00   0.00000000000000E+00
      1.93872841343394E-02   3.51073485442451E-09   1.93872876450742E-02  -9.42874316785035E-08
      1.60000000000000E-01
      1.50000000000000E+01   1.50000000000000E+01   0.00000000000000E+00   0.00000000000000E+00  -7.38159191471268E-26