DF-ISE text

Info {
  version   = 1.0
  type      = xyplot
  datasets  = [
    "time"
    "Gate OuterVoltage" "Gate InnerVoltage" "Gate QuasiFermiPotential" "Gate DisplacementCurrent" "Gate eCurrent"
    "Gate hCurrent" "Gate TotalCurrent" "Gate Charge" "Emitter OuterVoltage" "Emitter InnerVoltage"
    "Emitter QuasiFermiPotential" "Emitter DisplacementCurrent" "Emitter eCurrent" "Emitter hCurrent" "Emitter TotalCurrent"
    "Emitter Charge" "Emitter Temperature" "Emitter lHeatFlux" "Collector OuterVoltage" "Collector InnerVoltage"
    "Collector QuasiFermiPotential" "Collector DisplacementCurrent" "Collector eCurrent" "Collector hCurrent" "Collector TotalCurrent"
    "Collector Charge" "Collector Temperature" "Collector lHeatFlux" "Tmin" "Tave"
    "Tmax" ]
  functions = [
    Time
    OuterVoltage InnerVoltage QuasiFermiPotential DisplacementCurrent eCurrent
    hCurrent TotalCurrent Charge OuterVoltage InnerVoltage
    QuasiFermiPotential DisplacementCurrent eCurrent hCurrent TotalCurrent
    Charge Temperature lHeatFlux OuterVoltage InnerVoltage
    QuasiFermiPotential DisplacementCurrent eCurrent hCurrent TotalCurrent
    Charge Temperature lHeatFlux MinTemperature AveTemperature
    MaxTemperature ]
}

Data {
      0.00000000000000E+00
      1.50000000000000E+01   1.50000000000000E+01   0.00000000000000E+00   0.00000000000000E+00  -6.53205359023303E-26
      6.53205359023303E-26   0.00000000000000E+00   4.35857536629048E-07   0.00000000000000E+00   0.00000000000000E+00
      0.00000000000000E+00   0.00000000000000E+00  -7.05490626411116E-13  -2.23907325068501E-17  -7.05513017143623E-13
     -3.41542206631767E-07   3.00000000000000E+02   0.00000000000000E+00  -6.38846564834787E-16  -6.42913160452687E-16
      0.00000000000000E+00   0.00000000000000E+00   7.05490626499030E-13   2.23906445603412E-17   7.05513017143590E-13
     -9.43153299972774E-08   3.00000000000000E+02   0.00000000000000E+00   3.00000000000000E+02   2.99999999999966E+02
      3.00000000000000E+02
      3.33333333333333E-03
      1.50000000000000E+01   1.50000000000000E+01   0.00000000000000E+00   0.00000000000000E+00  -1.39137185588544E-25
      1.39137185588544E-25   0.00000000000000E+00   4.35857513143256E-07   0.00000000000000E+00   4.55458359178888E-10
      0.00000000000000E+00   0.00000000000000E+00  -4.55458422576270E-04  -6.85434213069686E-12  -4.55458429430613E-04
     -3.41542838738725E-07   3.00000000000000E+02   1.12594051465398E-04   3.99999999999359E-04   3.99999999543880E-04
      0.00000000000000E+00   0.00000000000000E+00   4.55458356837284E-04   7.25933245530325E-11   4.55458429430608E-04
     -9.43146744045308E-08   3.00000000000000E+02  -2.39547506504456E-05   2.99999999770996E+02   2.99999999981545E+02
      3.00000000121807E+02
      6.66666666666667E-03
      1.50000000000000E+01   1.50000000000000E+01   0.00000000000000E+00   0.00000000000000E+00  -1.18255196473063E-23
      1.18255196473063E-23   0.00000000000000E+00   4.35857493530051E-07   0.00000000000000E+00   8.35815769364953E-10
      0.00000000000000E+00   0.00000000000000E+00  -8.35815750556063E-04  -1.25736377913760E-11  -8.35815763129700E-04
     -3.41543366609826E-07   3.00000000000000E+02   2.06585417343642E-04   7.33999999998600E-04   7.33999999162756E-04
      0.00000000000000E+00   0.00000000000000E+00   8.35815629581145E-04   1.33548553771453E-10   8.35815763129698E-04
     -9.43141269202233E-08   3.00000000000000E+02  -4.42015872744853E-05   2.99999999580310E+02   2.99999999966201E+02
      3.00000000223962E+02
      1.00000000000000E-02
      1.50000000000000E+01   1.50000000000000E+01   0.00000000000000E+00   0.00000000000000E+00  -2.09146535127083E-20
      2.09146535127083E-20   0.00000000000000E+00   4.35857473842673E-07   0.00000000000000E+00   1.21761119051410E-09
      0.00000000000000E+00   0.00000000000000E+00  -1.21761118455482E-03  -1.82990592754849E-11  -1.21761120285388E-03
     -3.41543896470439E-07   3.00000000000000E+02   3.00898567307902E-04   1.06922333332978E-03   1.06922333211223E-03
      0.00000000000000E+00   0.00000000000000E+00   1.21761100782510E-03   1.95028754326097E-10   1.21761120285386E-03
     -9.43135773722348E-08   3.00000000000000E+02  -6.47465609752864E-05   2.99999999389413E+02   2.99999999950831E+02
      3.00000000326901E+02
      1.33333333333333E-02
      1.50000000000000E+01   1.50000000000000E+01   0.00000000000000E+00   0.00000000000000E+00  -1.08035581331169E-20
      1.08035581331169E-20   0.00000000000000E+00   4.35857454087453E-07   0.00000000000000E+00   1.60072208713522E-09
      0.00000000000000E+00   0.00000000000000E+00  -1.60072203209791E-03  -2.40560978131828E-11  -1.60072205615400E-03
     -3.41544428150244E-07   3.00000000000000E+02   3.95503274929936E-04   1.40556203888190E-03   1.40556203728124E-03
      0.00000000000000E+00   0.00000000000000E+00   1.60072179910744E-03   2.57046545508557E-10   1.60072205615399E-03
     -9.43130259372067E-08   3.00000000000000E+02  -8.55851138471737E-05   2.99999999198371E+02   2.99999999935451E+02
      3.00000000430594E+02
      1.66666666666667E-02
      1.50000000000000E+01   1.50000000000000E+01   0.00000000000000E+00   0.00000000000000E+00  -2.22227022468677E-20
      2.22227022468677E-20   0.00000000000000E+00   4.35857434264141E-07   0.00000000000000E+00   1.98515297005735E-09
      0.00000000000000E+00   0.00000000000000E+00  -1.98515303714921E-03  -2.98304631486261E-11  -1.98515306697967E-03
     -3.41544961655791E-07   3.00000000000000E+02   4.90400153429296E-04   1.74302001449756E-03   1.74302001251237E-03
      0.00000000000000E+00   0.00000000000000E+00   1.98515274738639E-03   3.19593272188885E-10   1.98515306697966E-03
     -9.43124726083476E-08   3.00000000000000E+02  -1.06720067959232E-04   2.99999999007188E+02   2.99999999920050E+02
      3.00000000535046E+02
      2.00000000000000E-02
      1.50000000000000E+01   1.50000000000000E+01   0.00000000000000E+00   0.00000000000000E+00  -1.08717049107807E-20
      1.08717049107807E-20   0.00000000000000E+00   4.35857414372504E-07   0.00000000000000E+00   2.37090887873859E-09
      0.00000000000000E+00   0.00000000000000E+00  -2.37090880570189E-03  -3.56182752811568E-11  -2.37090884132016E-03
     -3.41545496993386E-07   3.00000000000000E+02   5.85589661823494E-04   2.08160098458055E-03   2.08160098220959E-03
      0.00000000000000E+00   0.00000000000000E+00   2.37090845864940E-03   3.82670734904083E-10   2.37090884132013E-03
     -9.43119173791170E-08   3.00000000000000E+02  -1.28153943297541E-04   2.99999998815865E+02   2.99999999904634E+02
      3.00000000640263E+02
      2.33333333333333E-02
      1.50000000000000E+01   1.50000000000000E+01   0.00000000000000E+00   0.00000000000000E+00  -2.24326985056676E-20
      2.24326985056676E-20   0.00000000000000E+00   4.35857394412304E-07   0.00000000000000E+00   2.75799394045183E-09
      0.00000000000000E+00   0.00000000000000E+00  -2.75799391973910E-03  -4.14237319052182E-11  -2.75799396116283E-03
     -3.41546034169378E-07   3.00000000000000E+02   6.81072829284964E-04   2.42130868623842E-03   2.42130868348039E-03
      0.00000000000000E+00   0.00000000000000E+00   2.75799351487390E-03   4.46288885587851E-10   2.75799396116279E-03
     -9.43113602429238E-08   3.00000000000000E+02  -1.49889091661203E-04   2.99999998624407E+02   2.99999999889200E+02
      3.00000000746250E+02
      2.66666666666667E-02
      1.50000000000000E+01   1.50000000000000E+01   0.00000000000000E+00   0.00000000000000E+00  -1.09416486825354E-20
      1.09416486825354E-20   0.00000000000000E+00   4.35857374383299E-07   0.00000000000000E+00   3.14641318474011E-09
      0.00000000000000E+00   0.00000000000000E+00  -3.14641306524015E-03  -4.72439725967658E-11  -3.14641311248412E-03
     -3.41546573190161E-07   3.00000000000000E+02   7.76850276875763E-04   2.76214686901457E-03   2.76214686586812E-03
      0.00000000000000E+00   0.00000000000000E+00   3.14641260203339E-03   5.10450693346555E-10   3.14641311248409E-03
     -9.43108011931359E-08   3.00000000000000E+02  -1.71928191262251E-04   2.99999998432816E+02   2.99999999873751E+02
      3.00000000853013E+02
      3.00000000000000E-02
      1.50000000000000E+01   1.50000000000000E+01   0.00000000000000E+00   0.00000000000000E+00  -2.26017621132149E-20
      2.26017621132149E-20   0.00000000000000E+00   4.35857354285248E-07   0.00000000000000E+00   3.53617094030852E-09
      0.00000000000000E+00   0.00000000000000E+00  -3.53617087051110E-03  -5.30829467397180E-11  -3.53617092359404E-03
     -3.41547114062161E-07   3.00000000000000E+02   8.72923146023284E-04   3.10411929493015E-03   3.10411929139391E-03
      0.00000000000000E+00   0.00000000000000E+00   3.53617034842801E-03   5.75166013668304E-10   3.53617092359402E-03
     -9.43102402230884E-08   3.00000000000000E+02  -1.94273871203467E-04   2.99999998241096E+02   2.99999999858282E+02
      3.00000000960557E+02
      3.33333333333333E-02
      1.50000000000000E+01   1.50000000000000E+01   0.00000000000000E+00   0.00000000000000E+00  -1.10120198365028E-20
      1.10120198365028E-20   0.00000000000000E+00   4.35857334117911E-07   0.00000000000000E+00   3.92727212293789E-09
      0.00000000000000E+00   0.00000000000000E+00  -3.92727206453380E-03  -5.89400376610491E-11  -3.92727212347384E-03
     -3.41547656791838E-07   3.00000000000000E+02   9.69292047060721E-04   3.44722973852559E-03   3.44722973459832E-03
      0.00000000000000E+00   0.00000000000000E+00   3.92727148303357E-03   6.40440213765182E-10   3.92727212347379E-03
     -9.43096773260745E-08   3.00000000000000E+02  -2.16928731512341E-04   2.99999998049248E+02   2.99999999842803E+02
      3.00000001068888E+02
      3.66666666666667E-02
      1.50000000000000E+01   1.50000000000000E+01   0.00000000000000E+00   0.00000000000000E+00  -2.27529414164048E-20
      2.27529414164048E-20   0.00000000000000E+00   4.35857313881044E-07   0.00000000000000E+00   4.31972149968317E-09
      0.00000000000000E+00   0.00000000000000E+00  -4.31972135111636E-03  -6.48130190120483E-11  -4.31972141592938E-03
     -3.41548201385683E-07   3.00000000000000E+02   1.06595767127086E-03   3.79148198690224E-03   3.79148198258247E-03
      0.00000000000000E+00   0.00000000000000E+00   4.31972070965214E-03   7.06277130259827E-10   4.31972141592927E-03
     -9.43091124953589E-08   3.00000000000000E+02  -2.39895377937356E-04   2.99999997857277E+02   2.99999999827307E+02
      3.00000001178010E+02
      4.00000000000000E-02
      1.50000000000000E+01   1.50000000000000E+01   0.00000000000000E+00   0.00000000000000E+00  -1.10828094690649E-20
      1.10828094690649E-20   0.00000000000000E+00   4.35857293574398E-07   0.00000000000000E+00   4.71352354380056E-09
      0.00000000000000E+00   0.00000000000000E+00  -4.71352349410400E-03  -7.06977957447778E-11  -4.71352356480179E-03
     -3.41548747850226E-07   3.00000000000000E+02   1.16292085520113E-03   4.13687983976421E-03   4.13687983505072E-03
      0.00000000000000E+00   0.00000000000000E+00   4.71352279212287E-03   7.72678811358354E-10   4.71352356480168E-03
     -9.43085457241725E-08   3.00000000000000E+02  -2.63176433035007E-04   2.99999997665186E+02   2.99999999811795E+02
      3.00000001287931E+02
      4.33333333333333E-02
      1.50000000000000E+01   1.50000000000000E+01   0.00000000000000E+00   0.00000000000000E+00  -2.29049374841599E-20
      2.29049374841599E-20   0.00000000000000E+00   4.35857273197733E-07   0.00000000000000E+00   5.10868335632587E-09
      0.00000000000000E+00   0.00000000000000E+00  -5.10868323800448E-03  -7.66064855056653E-11  -5.10868331461097E-03
     -3.41549296192012E-07   3.00000000000000E+02   1.26018262514411E-03   4.48342710946026E-03   4.48342710435162E-03
      0.00000000000000E+00   0.00000000000000E+00   5.10868247494727E-03   8.39663599522623E-10   5.10868331461087E-03
     -9.43079770057181E-08   3.00000000000000E+02  -2.86774542471321E-04   2.99999997472976E+02   2.99999999796266E+02
      3.00000001398655E+02
      4.66666666666667E-02
      1.50000000000000E+01   1.50000000000000E+01   0.00000000000000E+00   0.00000000000000E+00  -1.11540307224816E-20
      1.11540307224816E-20   0.00000000000000E+00   4.35857252750798E-07   0.00000000000000E+00   5.50520547887700E-09
      0.00000000000000E+00   0.00000000000000E+00  -5.50520539445083E-03  -8.25300579374159E-11  -5.50520547698089E-03
     -3.41549846417629E-07   3.00000000000000E+02   1.35774348388391E-03   4.83112762102593E-03   4.83112761552071E-03
      0.00000000000000E+00   0.00000000000000E+00   5.50520456975201E-03   9.07228772018132E-10   5.50520547698078E-03
     -9.43074063331677E-08   3.00000000000000E+02  -3.10692424657363E-04   2.99999997280653E+02   2.99999999780722E+02
      3.00000001510188E+02
      5.00000000000000E-02
      1.50000000000000E+01   1.50000000000000E+01   0.00000000000000E+00   0.00000000000000E+00  -2.30578355896634E-20
      2.30578355896634E-20   0.00000000000000E+00   4.35857232233345E-07   0.00000000000000E+00   5.90309482097262E-09
      0.00000000000000E+00   0.00000000000000E+00  -5.90309475466206E-03  -8.84726237234869E-11  -5.90309484313469E-03
     -3.41550398533681E-07   3.00000000000000E+02   1.45560436506640E-03   5.17998521222572E-03   5.17998520632257E-03
      0.00000000000000E+00   0.00000000000000E+00   5.90309386774980E-03   9.75384831267473E-10   5.90309484313463E-03
     -9.43068336996629E-08   3.00000000000000E+02  -3.34932622914258E-04   2.99999997088218E+02   2.99999999765166E+02
      3.00000001622536E+02
      5.33333333333333E-02
      1.50000000000000E+01   1.50000000000000E+01   0.00000000000000E+00   0.00000000000000E+00  -1.12257088630963E-20
      1.12257088630963E-20   0.00000000000000E+00   4.35857211645126E-07   0.00000000000000E+00   6.30235624777458E-09
      0.00000000000000E+00   0.00000000000000E+00  -6.30235616248962E-03  -9.44303334127543E-11  -6.30235625691995E-03
     -3.41550952546808E-07   3.00000000000000E+02   1.55376645856887E-03   5.53000373359546E-03   5.53000372729306E-03
      0.00000000000000E+00   0.00000000000000E+00   6.30235521278548E-03   1.04413440497071E-09   6.30235625691989E-03
     -9.43062590983181E-08   3.00000000000000E+02  -3.59498398010685E-04   2.99999996895676E+02   2.99999999749594E+02
      3.00000001735705E+02
      5.66666666666667E-02
      1.50000000000000E+01   1.50000000000000E+01   0.00000000000000E+00   0.00000000000000E+00  -2.32116266439950E-20
      2.32116266439950E-20   0.00000000000000E+00   4.35857190985892E-07   0.00000000000000E+00   6.70299465158068E-09
      0.00000000000000E+00   0.00000000000000E+00  -6.70299444404128E-03  -1.00404244201478E-10  -6.70299454444553E-03
     -3.41551508463672E-07   3.00000000000000E+02   1.65222998230727E-03   5.88118704848482E-03   5.88118704178184E-03
      0.00000000000000E+00   0.00000000000000E+00   6.70299343096036E-03   1.11348511421730E-09   6.70299454444548E-03
     -9.43056825222171E-08   3.00000000000000E+02  -3.84391953818232E-04   2.99999996703029E+02   2.99999999734005E+02
      3.00000001849700E+02
      6.00000000000000E-02
      1.50000000000000E+01   1.50000000000000E+01   0.00000000000000E+00   0.00000000000000E+00  -1.12977904501960E-20
      1.12977904501960E-20   0.00000000000000E+00   4.35857170255389E-07   0.00000000000000E+00   7.10501458027093E-09
      0.00000000000000E+00   0.00000000000000E+00  -7.10501448746000E-03  -1.06394696850027E-10  -7.10501459385470E-03
     -3.41552066290972E-07   3.00000000000000E+02   1.75099601191187E-03   6.23353903309995E-03   6.23353902599488E-03
      0.00000000000000E+00   0.00000000000000E+00   7.10501341041064E-03   1.18344395167419E-09   7.10501459385459E-03
     -9.43051039644141E-08   3.00000000000000E+02  -4.09616190177842E-04   2.99999996510281E+02   2.99999999718408E+02
      3.00000001964527E+02
      6.33333333333333E-02
      1.50000000000000E+01   1.50000000000000E+01   0.00000000000000E+00   0.00000000000000E+00  -2.33663786517556E-20
      2.33663786517556E-20   0.00000000000000E+00   4.35857149453365E-07   0.00000000000000E+00   7.50842135770904E-09
      0.00000000000000E+00   0.00000000000000E+00  -7.50842118031961E-03  -1.12404035043569E-10  -7.50842129272365E-03
     -3.41552626035423E-07   3.00000000000000E+02   1.85006538079740E-03   6.58706357654624E-03   6.58706356903780E-03
      0.00000000000000E+00   0.00000000000000E+00   7.50842003870354E-03   1.25402000249469E-09   7.50842129272355E-03
     -9.43045234179410E-08   3.00000000000000E+02  -4.35174139738918E-04   2.99999996317435E+02   2.99999999702791E+02
      3.00000002080192E+02
      6.66666666666667E-02
      1.50000000000000E+01   1.50000000000000E+01   0.00000000000000E+00   0.00000000000000E+00  -1.13702809157365E-20
      1.13702809157365E-20   0.00000000000000E+00   4.35857128579569E-07   0.00000000000000E+00   7.91321957821923E-09
      0.00000000000000E+00   0.00000000000000E+00  -7.91321944387535E-03  -1.18430030378755E-10  -7.91321956230538E-03
     -3.41553187703770E-07   3.00000000000000E+02   1.94943893281923E-03   6.94176458087129E-03   6.94176457295814E-03
      0.00000000000000E+00   0.00000000000000E+00   7.91321823708735E-03   1.32521787051663E-09   7.91321956230522E-03
     -9.43039408757965E-08   3.00000000000000E+02  -4.61068266943896E-04   2.99999996124494E+02   2.99999999687162E+02
      3.00000002196701E+02
      7.00000000000000E-02
      1.50000000000000E+01   1.50000000000000E+01   0.00000000000000E+00   0.00000000000000E+00  -2.35222238693514E-20
      2.35222238693514E-20   0.00000000000000E+00   4.35857107633743E-07   0.00000000000000E+00   8.31941432457276E-09
      0.00000000000000E+00   0.00000000000000E+00  -8.31941419394051E-03  -1.24474306144885E-10  -8.31941431841482E-03
     -3.41553751302786E-07   3.00000000000000E+02   2.04911751942016E-03   7.29764596110795E-03   7.29764595278852E-03
      0.00000000000000E+00   0.00000000000000E+00   8.31941292136867E-03   1.39704610360435E-09   8.31941431841478E-03
     -9.43033563309573E-08   3.00000000000000E+02  -4.87301658184855E-04   2.99999995931463E+02   2.99999999671518E+02
      3.00000002314060E+02
      7.33333333333333E-02
      1.50000000000000E+01   1.50000000000000E+01   0.00000000000000E+00   0.00000000000000E+00  -1.14432407298642E-20
      1.14432407298642E-20   0.00000000000000E+00   4.35857086615635E-07   0.00000000000000E+00   8.72701053133688E-09
      0.00000000000000E+00   0.00000000000000E+00  -8.72701038050796E-03  -1.30535594973034E-10  -8.72701051104356E-03
     -3.41554316839271E-07   3.00000000000000E+02   2.14910163606527E-03   7.65471164531753E-03   7.65471163659060E-03
      0.00000000000000E+00   0.00000000000000E+00   8.72700904153296E-03   1.46951045252579E-09   8.72701051104341E-03
     -9.43027697763629E-08   3.00000000000000E+02  -5.13877199965410E-04   2.99999995738343E+02   2.99999999655862E+02
      3.00000002432275E+02
      7.66666666666666E-02
      1.50000000000000E+01   1.50000000000000E+01   0.00000000000000E+00   0.00000000000000E+00  -2.36790434637634E-20
      2.36790434637634E-20   0.00000000000000E+00   4.35857065524987E-07   0.00000000000000E+00   9.13601310646472E-09
      0.00000000000000E+00   0.00000000000000E+00  -9.13601297199574E-03  -1.36616587038850E-10  -9.13601310861232E-03
     -3.41554884320050E-07   3.00000000000000E+02   2.24939265329746E-03   8.01296557463316E-03   8.01296556549707E-03
      0.00000000000000E+00   0.00000000000000E+00   9.13601156599135E-03   1.54262072083499E-09   9.13601310861207E-03
     -9.43021812049356E-08   3.00000000000000E+02  -5.40797381601693E-04   2.99999995545140E+02   2.99999999640195E+02
      3.00000002551352E+02
      8.00000000000000E-02
      1.50000000000000E+01   1.50000000000000E+01   0.00000000000000E+00   0.00000000000000E+00  -1.15164198795645E-20
      1.15164198795645E-20   0.00000000000000E+00   4.35857044361541E-07   0.00000000000000E+00   9.54642715568874E-09
      0.00000000000000E+00   0.00000000000000E+00  -9.54642697622973E-03  -1.42711213239718E-10  -9.54642711894094E-03
     -3.41555453751979E-07   3.00000000000000E+02   2.34999103702451E-03   8.37241170330331E-03   8.37241169375691E-03
      0.00000000000000E+00   0.00000000000000E+00   9.54642550256278E-03   1.61637804932813E-09   9.54642711894083E-03
     -9.43015906095599E-08   3.00000000000000E+02  -5.68065487141466E-04   2.99999995351855E+02   2.99999999624510E+02
      3.00000002671297E+02
      8.33333333333333E-02
      1.50000000000000E+01   1.50000000000000E+01   0.00000000000000E+00   0.00000000000000E+00  -2.38368037156665E-20
      2.38368037156665E-20   0.00000000000000E+00   4.35857023125039E-07   0.00000000000000E+00   9.95825749302994E-09
      0.00000000000000E+00   0.00000000000000E+00  -9.95825738664733E-03  -1.48824698010964E-10  -9.95825753547203E-03
     -3.41556025141939E-07   3.00000000000000E+02   2.45089749430523E-03   8.73305399873540E-03   8.73305398877704E-03
      0.00000000000000E+00   0.00000000000000E+00   9.95825584467695E-03   1.69079497057108E-09   9.95825753547192E-03
     -9.43009979830977E-08   3.00000000000000E+02  -5.95684263995864E-04   2.99999995158494E+02   2.99999999608818E+02
      3.00000002792116E+02
      8.66666666666666E-02
      1.50000000000000E+01   1.50000000000000E+01   0.00000000000000E+00   0.00000000000000E+00  -1.15904569676135E-20
      1.15904569676135E-20   0.00000000000000E+00   4.35857001815221E-07   0.00000000000000E+00   1.03715094016481E-08
      0.00000000000000E+00   0.00000000000000E+00  -1.03715092326499E-02  -1.54957219872508E-10  -1.03715093876072E-02
     -3.41556598496836E-07   3.00000000000000E+02   2.55211347914491E-03   9.09489644153962E-03   9.09489643116811E-03
      0.00000000000000E+00   0.00000000000000E+00   1.03715076217280E-02   1.76587907082145E-09   1.03715093876071E-02
     -9.43004033183829E-08   3.00000000000000E+02  -6.23656852280421E-04   2.99999994965059E+02   2.99999999593111E+02
      3.00000002913816E+02
      9.00000000000000E-02
      1.50000000000000E+01   1.50000000000000E+01   0.00000000000000E+00   0.00000000000000E+00  -2.39955696476410E-20
      2.39955696476410E-20   0.00000000000000E+00   4.35856980431828E-07   0.00000000000000E+00   1.07861878061954E-08
      0.00000000000000E+00   0.00000000000000E+00  -1.07861875658090E-02  -1.61106364901396E-10  -1.07861877269153E-02
     -3.41557173823605E-07   3.00000000000000E+02   2.65363913285248E-03   9.45794302557286E-03   9.45794301478677E-03
      0.00000000000000E+00   0.00000000000000E+00   1.07861858852798E-02   1.84163544517513E-09   1.07861877269152E-02
     -9.42998066082214E-08   3.00000000000000E+02  -6.51986005408764E-04   2.99999994771554E+02   2.99999999577390E+02
      3.00000003036402E+02
      9.33333333333333E-02
      1.50000000000000E+01   1.50000000000000E+01   0.00000000000000E+00   0.00000000000000E+00  -1.16645153328392E-20
      1.16645153328392E-20   0.00000000000000E+00   4.35856958974597E-07   0.00000000000000E+00   1.12022976443702E-08
      0.00000000000000E+00   0.00000000000000E+00  -1.12022974615071E-02  -1.67269790943974E-10  -1.12022976287769E-02
     -3.41557751129208E-07   3.00000000000000E+02   2.75547555235932E-03   9.82219775798279E-03   9.82219774678052E-03
      0.00000000000000E+00   0.00000000000000E+00   1.12022957107074E-02   1.91806936326952E-09   1.12022976287768E-02
     -9.42992078453879E-08   3.00000000000000E+02  -6.80674702513116E-04   2.99999994577983E+02   2.99999999561662E+02
      3.00000003159881E+02
      9.66666666666666E-02
      1.50000000000000E+01   1.50000000000000E+01   0.00000000000000E+00   0.00000000000000E+00  -2.41553513024500E-20
      2.41553513024500E-20   0.00000000000000E+00   4.35856937443266E-07   0.00000000000000E+00   1.16198441247084E-08
      0.00000000000000E+00   0.00000000000000E+00  -1.16198440042976E-02  -1.73453680803096E-10  -1.16198441777512E-02
     -3.41558330420630E-07   3.00000000000000E+02   2.85762363002736E-03   1.01876646592521E-02   1.01876646476323E-02
      0.00000000000000E+00   0.00000000000000E+00   1.16198421825565E-02   1.99519472415461E-09   1.16198441777512E-02
     -9.42986070226350E-08   3.00000000000000E+02  -7.09726114716347E-04   2.99999994384350E+02   2.99999999545918E+02
      3.00000003284260E+02
      9.99999999999999E-02
      1.50000000000000E+01   1.50000000000000E+01   0.00000000000000E+00   0.00000000000000E+00  -1.17393477338693E-20
      1.17393477338693E-20   0.00000000000000E+00   4.35856915837571E-07   0.00000000000000E+00   1.20388324098235E-08
      0.00000000000000E+00   0.00000000000000E+00  -1.20388322969660E-02  -1.79658317494522E-10  -1.20388324766243E-02
     -3.41558911704888E-07   3.00000000000000E+02   2.96008429732339E-03   1.05543477632428E-02   1.05543477512039E-02
      0.00000000000000E+00   0.00000000000000E+00   1.20388304036046E-02   2.07301963317291E-09   1.20388324766242E-02
     -9.42980041326817E-08   3.00000000000000E+02  -7.39143118786565E-04   2.99999994190657E+02   2.99999999530163E+02
      3.00000003409543E+02
      1.03333333333333E-01
      1.50000000000000E+01   1.50000000000000E+01   0.00000000000000E+00   0.00000000000000E+00  -2.43161210945866E-20
      2.43161210945866E-20   0.00000000000000E+00   4.35856894157247E-07   0.00000000000000E+00   1.24592676670257E-08
      0.00000000000000E+00   0.00000000000000E+00  -1.24592674764003E-02  -1.85876927234171E-10  -1.24592676622772E-02
     -3.41559494989024E-07   3.00000000000000E+02   3.06285800243533E-03   1.09222511172408E-02   1.09222511047815E-02
      0.00000000000000E+00   0.00000000000000E+00   1.24592655107319E-02   2.15154524660665E-09   1.24592676622772E-02
     -9.42973991682214E-08   3.00000000000000E+02  -7.68928832535799E-04   2.99999993996910E+02   2.99999999514397E+02
      3.00000003535739E+02
      1.06666666666667E-01
      1.50000000000000E+01   1.50000000000000E+01   0.00000000000000E+00   0.00000000000000E+00  -1.18144095519927E-20
      1.18144095519927E-20   0.00000000000000E+00   4.35856872402028E-07   0.00000000000000E+00   1.28811549211615E-08
      0.00000000000000E+00   0.00000000000000E+00  -1.28811547089057E-02  -1.92111572573403E-10  -1.28811549010173E-02
     -3.41560080280108E-07   3.00000000000000E+02   3.16594599374222E-03   1.12913787820008E-02   1.12913787691196E-02
      0.00000000000000E+00   0.00000000000000E+00   1.28811526702355E-02   2.23078166654108E-09   1.28811549010172E-02
     -9.42967921219211E-08   3.00000000000000E+02  -7.99086427011730E-04   2.99999993803111E+02   2.99999999498617E+02
      3.00000003662853E+02
      1.10000000000000E-01
      1.50000000000000E+01   1.50000000000000E+01   0.00000000000000E+00   0.00000000000000E+00  -2.44778365154489E-20
      2.44778365154489E-20   0.00000000000000E+00   4.35856850571649E-07   0.00000000000000E+00   1.33044992591768E-08
      0.00000000000000E+00   0.00000000000000E+00  -1.33044991214983E-02  -1.98367887037526E-10  -1.33044993198662E-02
     -3.41560667585231E-07   3.00000000000000E+02   3.26934895746382E-03   1.16617348317906E-02   1.16617348184861E-02
      0.00000000000000E+00   0.00000000000000E+00   1.33044970091234E-02   2.31074267720744E-09   1.33044993198661E-02
     -9.42961829864161E-08   3.00000000000000E+02  -8.29618853509190E-04   2.99999993609266E+02   2.99999999482830E+02
      3.00000003790892E+02
      1.13333333333333E-01
      1.50000000000000E+01   1.50000000000000E+01   0.00000000000000E+00   0.00000000000000E+00  -1.18899642625967E-20
      1.18899642625967E-20   0.00000000000000E+00   4.35856828665842E-07   0.00000000000000E+00   1.37293061411369E-08
      0.00000000000000E+00   0.00000000000000E+00  -1.37293059258576E-02  -2.04643043255941E-10  -1.37293061305007E-02
     -3.41561256911523E-07   3.00000000000000E+02   3.37306768482663E-03   1.20333233544366E-02   1.20333233407073E-02
      0.00000000000000E+00   0.00000000000000E+00   1.37293037390668E-02   2.39143371488438E-09   1.37293061305005E-02
     -9.42955717543170E-08   3.00000000000000E+02  -8.60529371840359E-04   2.99999993415376E+02   2.99999999467030E+02
      3.00000003919862E+02
      1.16666666666667E-01
      1.50000000000000E+01   1.50000000000000E+01   0.00000000000000E+00   0.00000000000000E+00  -2.46405491550108E-20
      2.46405491550108E-20   0.00000000000000E+00   4.35856806684336E-07   0.00000000000000E+00   1.41555806665121E-08
      0.00000000000000E+00   0.00000000000000E+00  -1.41555803498030E-02  -2.10931707853025E-10  -1.41555805607347E-02
     -3.41561848266131E-07   3.00000000000000E+02   3.47710320506476E-03   1.24061484513686E-02   1.24061484372130E-02
      0.00000000000000E+00   0.00000000000000E+00   1.41555780878768E-02   2.47285782458675E-09   1.41555805607346E-02
     -9.42949584182037E-08   3.00000000000000E+02  -8.91820995652225E-04   2.99999993221448E+02   2.99999999451224E+02
      3.00000004049771E+02
      1.20000000000000E-01
      1.50000000000000E+01   1.50000000000000E+01   0.00000000000000E+00   0.00000000000000E+00  -1.19660231291544E-20
      1.19660231291544E-20   0.00000000000000E+00   4.35856784626862E-07   0.00000000000000E+00   1.45833278397969E-08
      0.00000000000000E+00   0.00000000000000E+00  -1.45833276082955E-02  -2.17241021456921E-10  -1.45833278255365E-02
     -3.41562441656236E-07   3.00000000000000E+02   3.58145614449057E-03   1.27802142376651E-02   1.27802142230818E-02
      0.00000000000000E+00   0.00000000000000E+00   1.45833252705057E-02   2.55503064188234E-09   1.45833278255364E-02
     -9.42943429706269E-08   3.00000000000000E+02  -9.23496841931518E-04   2.99999993027484E+02   2.99999999435403E+02
      3.00000004180624E+02
      1.23333333333333E-01
      1.50000000000000E+01   1.50000000000000E+01   0.00000000000000E+00   0.00000000000000E+00  -2.48041378082305E-20
      2.48041378082305E-20   0.00000000000000E+00   4.35856762493151E-07   0.00000000000000E+00   1.50125532019426E-08