DF-ISE text

Info {
  version   = 1.0
  type      = xyplot
  datasets  = [
    "time"
    "Gate OuterVoltage" "Gate InnerVoltage" "Gate QuasiFermiPotential" "Gate DisplacementCurrent" "Gate eCurrent"
    "Gate hCurrent" "Gate TotalCurrent" "Gate Charge" "Emitter OuterVoltage" "Emitter InnerVoltage"
    "Emitter QuasiFermiPotential" "Emitter DisplacementCurrent" "Emitter eCurrent" "Emitter hCurrent" "Emitter TotalCurrent"
    "Emitter Charge" "Collector OuterVoltage" "Collector InnerVoltage" "Collector QuasiFermiPotential" "Collector DisplacementCurrent"
    "Collector eCurrent" "Collector hCurrent" "Collector TotalCurrent" "Collector Charge" ]
  functions = [
    Time
    OuterVoltage InnerVoltage QuasiFermiPotential DisplacementCurrent eCurrent
    hCurrent TotalCurrent Charge OuterVoltage InnerVoltage
    QuasiFermiPotential DisplacementCurrent eCurrent hCurrent TotalCurrent
    Charge OuterVoltage InnerVoltage QuasiFermiPotential DisplacementCurrent
    eCurrent hCurrent TotalCurrent Charge ]
}

Data {
      0.00000000000000E+00
      1.35116106657830E-17   0.00000000000000E+00   0.00000000000000E+00   0.00000000000000E+00  -9.90173405183172E-26
      9.90173405183172E-26   0.00000000000000E+00   2.03271036440394E-08   1.35116106657830E-17   0.00000000000000E+00
      0.00000000000000E+00   0.00000000000000E+00   1.28579359918160E-17   3.48630365935462E-16   3.61488301927278E-16
     -3.40972168015705E-08   0.00000000000000E+00  -8.98102018896385E-17   0.00000000000000E+00   0.00000000000000E+00
     -1.28579875723466E-17  -3.48630314354939E-16  -3.61488301927286E-16   1.37701131575309E-08
      0.00000000000000E+00
      1.29982807383993E-19   0.00000000000000E+00   0.00000000000000E+00   0.00000000000000E+00  -7.27613360371863E-26
      7.27613360371863E-26   0.00000000000000E+00   2.03271036473717E-08   1.29982807383993E-19   0.00000000000000E+00
      0.00000000000000E+00   0.00000000000000E+00  -2.23553813376691E-17  -6.17218004062525E-17  -8.40771817439217E-17
     -3.40972168015527E-08   0.00000000000000E+00   0.00000000000000E+00   0.00000000000000E+00   0.00000000000000E+00
      2.23552779959696E-17   6.17219037479496E-17   8.40771817439193E-17   1.37701131541808E-08
      0.00000000000000E+00
     -1.04819701193585E-22   0.00000000000000E+00   0.00000000000000E+00   0.00000000000000E+00  -4.97707262494304E-26
      4.97707262494304E-26   0.00000000000000E+00   2.03271036473717E-08  -1.04819701193585E-22   0.00000000000000E+00
      0.00000000000000E+00   0.00000000000000E+00   1.69625520217774E-17  -3.03288470888584E-17  -1.33662950670810E-17
     -3.40972168015527E-08   0.00000000000000E+00   0.00000000000000E+00   0.00000000000000E+00   0.00000000000000E+00
     -1.69626604629141E-17   3.03289555299939E-17   1.33662950670798E-17   1.37701131541808E-08
      1.00000000000000E-04
      4.99999824978313E-03   4.99999824978317E-03   0.00000000000000E+00   0.00000000000000E+00  -9.62666055202798E-26
      9.62666055202798E-26   0.00000000000000E+00   2.03271036367783E-08   4.99999824978313E-03   4.99999824978314E-03
      0.00000000000000E+00   0.00000000000000E+00   6.00713804550153E-18  -3.52568811974021E-16  -3.46561673928520E-16
     -3.40972168359860E-08   5.00000000000000E-03   4.99999999999997E-03   0.00000000000000E+00   0.00000000000000E+00
      3.13881990581298E-16   3.26796833472237E-17   3.46561673928522E-16   1.37701131992075E-08
      2.48333333333333E-04
      1.24166625903041E-02   1.24166625903041E-02   0.00000000000000E+00   0.00000000000000E+00  -5.48453423059877E-26
      5.48453423059877E-26   0.00000000000000E+00   2.03271036226990E-08   1.24166625903041E-02   1.24166625903041E-02
      0.00000000000000E+00   0.00000000000000E+00  -1.83940016043474E-17  -7.51054280396794E-16  -7.69448282001141E-16
     -3.40972168817499E-08   1.24166666666667E-02   1.24166666666667E-02   0.00000000000000E+00   0.00000000000000E+00
      7.63435507178040E-16   6.01277482309813E-18   7.69448282001138E-16   1.37701132590508E-08
      4.69597222222222E-04
      2.34798540639797E-02   2.34798540639797E-02   0.00000000000000E+00   0.00000000000000E+00  -8.76806472602973E-26
      8.76806472602973E-26   0.00000000000000E+00   2.03271036047181E-08   2.34798540639797E-02   2.34798540639797E-02
      0.00000000000000E+00   0.00000000000000E+00  -1.20301525154940E-17  -1.28818077383588E-15  -1.30021092635137E-15
     -3.40972169401964E-08   2.34798611111111E-02   2.34798611111111E-02   0.00000000000000E+00   0.00000000000000E+00
      1.30004262047427E-15   1.68305877100979E-19   1.30021092635137E-15   1.37701133354781E-08
      7.99649189814815E-04
      3.99824488539014E-02   3.99824488539011E-02   0.00000000000000E+00   0.00000000000000E+00  -6.54826034657236E-26
      6.54826034657236E-26   0.00000000000000E+00   2.03271035829910E-08   3.99824488539014E-02   3.99824488539014E-02
      0.00000000000000E+00   0.00000000000000E+00  -4.84213045238718E-18  -1.93182498979569E-15  -1.93666712024808E-15
     -3.40972170108192E-08   3.99824594907407E-02   3.99824594907408E-02   0.00000000000000E+00   0.00000000000000E+00
      1.94894970609075E-15  -1.22825858426477E-17   1.93666712024810E-15   1.37701134278283E-08
      1.28922627507716E-03
      6.44612990086054E-02   6.44612990086051E-02   0.00000000000000E+00   0.00000000000000E+00  -6.26501429742734E-26
      6.26501429742734E-26   0.00000000000000E+00   2.03271035581244E-08   6.44612990086054E-02   6.44612990086055E-02
      0.00000000000000E+00   0.00000000000000E+00  -5.36680031455478E-18  -2.68726899616511E-15  -2.69263579647967E-15
     -3.40972170916473E-08   6.44613137538580E-02   6.44613137538579E-02   0.00000000000000E+00   0.00000000000000E+00
      2.70037382612208E-15  -7.73802964241651E-18   2.69263579647966E-15   1.37701135335229E-08
      2.01543228488297E-03
      1.00771594805737E-01   1.00771594805737E-01   0.00000000000000E+00   0.00000000000000E+00  -7.13934591770487E-26
      7.13934591770487E-26   0.00000000000000E+00   2.03271035297185E-08   1.00771594805737E-01   1.00771594805737E-01
      0.00000000000000E+00   0.00000000000000E+00   7.85530849984984E-18  -3.51619940635914E-15  -3.50834409785929E-15
     -3.40972171839793E-08   1.00771614244149E-01   1.00771614244149E-01   0.00000000000000E+00   0.00000000000000E+00
      3.54492566930927E-15  -3.65815714499692E-17   3.50834409785930E-15   1.37701136542612E-08
      3.09263786609493E-03
      1.54631868148533E-01   1.54631868148532E-01   0.00000000000000E+00   0.00000000000000E+00  -5.95674390201799E-26
      5.95674390201799E-26   0.00000000000000E+00   2.03271034951109E-08   1.54631868148533E-01   1.54631868148532E-01
      0.00000000000000E+00   0.00000000000000E+00   9.19826575172535E-18  -4.54427192360548E-15  -4.53507365785376E-15
     -3.40972172964703E-08   1.54631893304746E-01   1.54631893304747E-01   0.00000000000000E+00   0.00000000000000E+00
      4.58863182915661E-15  -5.35581713028198E-17   4.53507365785379E-15   1.37701138013597E-08
      4.69049281155933E-03
      2.34524608208178E-01   2.34524608208179E-01   0.00000000000000E+00   0.00000000000000E+00  -9.57350240233808E-26
      9.57350240233808E-26   0.00000000000000E+00   2.03271034514499E-08   2.34524608208178E-01   2.34524608208179E-01
      0.00000000000000E+00   0.00000000000000E+00   1.47551052803805E-17  -5.88456043577258E-15  -5.86980533049220E-15
     -3.40972174383886E-08   2.34524640577967E-01   2.34524640577967E-01   0.00000000000000E+00   0.00000000000000E+00
      5.90150796583935E-15  -3.17026353472107E-17   5.86980533049214E-15   1.37701139869386E-08
      7.04732885611932E-03
      3.52366401482996E-01   3.52366401482996E-01   0.00000000000000E+00   0.00000000000000E+00  -8.44421798152508E-26
      8.44421798152508E-26   0.00000000000000E+00   2.03271033972597E-08   3.52366401482996E-01   3.52366401482996E-01
      0.00000000000000E+00   0.00000000000000E+00  -2.19365836783112E-17  -7.55438639496687E-15  -7.57632297864518E-15
     -3.40972176145314E-08   3.52366442805966E-01   3.52366442805967E-01   0.00000000000000E+00   0.00000000000000E+00
      7.57458232371925E-15   1.74065492588204E-18   7.57632297864514E-15   1.37701142172715E-08
      1.02290575162753E-02
      5.11452827368652E-01   5.11452827368653E-01   0.00000000000000E+00   0.00000000000000E+00  -6.04204125709519E-26
      6.04204125709519E-26   0.00000000000000E+00   2.03271033541522E-08   5.11452827368652E-01   5.11452827368650E-01
      0.00000000000000E+00   0.00000000000000E+00  -4.36706952413926E-17  -8.88625139261333E-15  -8.92992208785472E-15
     -3.40972177546509E-08   5.11452875813766E-01   5.11452875813766E-01   0.00000000000000E+00   0.00000000000000E+00
      8.89803808887443E-15   3.18839989803485E-17   8.92992208785478E-15   1.37701144004988E-08
      1.43918191799794E-02
      7.19590902365361E-01   7.19590902365363E-01   0.00000000000000E+00   0.00000000000000E+00  -6.24984218342246E-26
      6.24984218342246E-26   0.00000000000000E+00   2.03271033045904E-08   7.19590902365361E-01   7.19590902365360E-01
      0.00000000000000E+00   0.00000000000000E+00  -1.29609400909376E-16  -1.03235929985316E-14  -1.04532023994409E-14
     -3.40972179157496E-08   7.19590958998970E-01   7.19590958998970E-01   0.00000000000000E+00   0.00000000000000E+00
      1.04805965883101E-14  -2.73941888692508E-17   1.04532023994409E-14   1.37701146111593E-08
      2.03584442312886E-02
      1.01792213333402E+00   1.01792213333402E+00   0.00000000000000E+00   0.00000000000000E+00  -5.47978589491665E-26
      5.47978589491665E-26   0.00000000000000E+00   2.03271031738733E-08   1.01792213333402E+00   1.01792213333402E+00
      0.00000000000000E+00   0.00000000000000E+00  -2.76543075319323E-18  -1.42313419294955E-14  -1.42341073602486E-14
     -3.40972183406403E-08   1.01792221156443E+00   1.01792221156443E+00   0.00000000000000E+00   0.00000000000000E+00
      1.43010214212574E-14  -6.69140610084280E-17   1.42341073602490E-14   1.37701151667669E-08
      2.84631099259836E-02
      1.42315538638360E+00   1.42315538638361E+00   0.00000000000000E+00   0.00000000000000E+00  -1.01006986172610E-25
      1.01006986172610E-25   0.00000000000000E+00   2.03271029820953E-08   1.42315538638360E+00   1.42315538638360E+00
      0.00000000000000E+00   0.00000000000000E+00  -1.60184796780268E-16  -2.02520667723390E-14  -2.04122515691192E-14
     -3.40972189640071E-08   1.42315549629918E+00   1.42315549629918E+00   0.00000000000000E+00   0.00000000000000E+00
      2.02495660263418E-14   1.62685542777364E-16   2.04122515691191E-14   1.37701159819120E-08
      3.28936605057502E-02
      1.64468291118996E+00   1.64468291118995E+00   0.00000000000000E+00   0.00000000000000E+00  -6.77394435524253E-26
      6.77394435524253E-26   0.00000000000000E+00   2.03271029567835E-08   1.64468291118996E+00   1.64468291118996E+00
      0.00000000000000E+00   0.00000000000000E+00  -2.48520690525440E-17  -2.10314816694085E-14  -2.10563337384610E-14
     -3.40972190462822E-08   1.64468302528751E+00   1.64468302528751E+00   0.00000000000000E+00   0.00000000000000E+00
      2.08785751947025E-14   1.77758543758351E-16   2.10563337384608E-14   1.37701160894989E-08
      3.52861578188241E-02
      1.76430777509482E+00   1.76430777509482E+00   0.00000000000000E+00   0.00000000000000E+00  -9.08422351466600E-26
      9.08422351466600E-26   0.00000000000000E+00   2.03271029461984E-08   1.76430777509482E+00   1.76430777509482E+00
      0.00000000000000E+00   0.00000000000000E+00   1.07530090668278E-16  -2.11559099936772E-14  -2.10483799030089E-14
     -3.40972190806885E-08   1.76430789094121E+00   1.76430789094120E+00   0.00000000000000E+00   0.00000000000000E+00
      2.10658298591281E-14  -1.74499561192779E-17   2.10483799030088E-14   1.37701161344901E-08
      3.88150913556082E-02
      1.94075444803933E+00   1.94075444803933E+00   0.00000000000000E+00   0.00000000000000E+00  -8.54820793398020E-26
      8.54820793398020E-26   0.00000000000000E+00   2.03271029226254E-08   1.94075444803933E+00   1.94075444803932E+00
      0.00000000000000E+00   0.00000000000000E+00   5.06595603125859E-17  -2.19389289782266E-14  -2.18882694179140E-14
     -3.40972191573120E-08   1.94075456778041E+00   1.94075456778041E+00   0.00000000000000E+00   0.00000000000000E+00
      2.18345376122695E-14   5.37318056443776E-17   2.18882694179139E-14   1.37701162346866E-08
      4.38144138660524E-02
      2.19072056106799E+00   2.19072056106799E+00   0.00000000000000E+00   0.00000000000000E+00  -6.94360362657935E-26
      6.94360362657935E-26   0.00000000000000E+00   2.03271028470068E-08   2.19072056106799E+00   2.19072056106799E+00
      0.00000000000000E+00   0.00000000000000E+00   4.71293000743435E-18  -2.38314473880726E-14  -2.38267344580652E-14
     -3.40972194031073E-08   2.19072069330262E+00   2.19072069330262E+00   0.00000000000000E+00   0.00000000000000E+00
      2.41639381763210E-14  -3.37203718255980E-16   2.38267344580650E-14   1.37701165561004E-08
      5.09384484434352E-02
      2.54692227987550E+00   2.54692227987551E+00   0.00000000000000E+00   0.00000000000000E+00  -6.98757984236726E-26
      6.98757984236726E-26   0.00000000000000E+00   2.03271027861076E-08   2.54692227987550E+00   2.54692227987551E+00
      0.00000000000000E+00   0.00000000000000E+00   1.05163042036579E-16  -2.62295377578398E-14  -2.61243747158032E-14
     -3.40972196010575E-08   2.54692242217176E+00   2.54692242217176E+00   0.00000000000000E+00   0.00000000000000E+00
      2.59024605669178E-14   2.21914148885614E-16   2.61243747158034E-14   1.37701168149502E-08
      6.06152620777137E-02
      3.03076295718841E+00   3.03076295718842E+00   0.00000000000000E+00   0.00000000000000E+00  -6.52479935570055E-26
      6.52479935570055E-26   0.00000000000000E+00   2.03271027594699E-08   3.03076295718841E+00   3.03076295718842E+00
      0.00000000000000E+00   0.00000000000000E+00  -2.85264979765512E-16  -2.66972827422171E-14  -2.69825477219826E-14
     -3.40972196876422E-08   3.03076310388568E+00   3.03076310388569E+00   0.00000000000000E+00   0.00000000000000E+00
      2.70972651932952E-14  -1.14717471312783E-16   2.69825477219824E-14   1.37701169281722E-08
      6.61955579401476E-02
      3.30977774623988E+00   3.30977774623989E+00   0.00000000000000E+00   0.00000000000000E+00  -6.77611946655720E-26
      6.77611946655720E-26   0.00000000000000E+00   2.03271027348345E-08   3.30977774623988E+00   3.30977774623989E+00
      0.00000000000000E+00   0.00000000000000E+00  -7.51108440679822E-17  -2.73811448894803E-14  -2.74562557335483E-14
     -3.40972197677188E-08   3.30977789700738E+00   3.30977789700738E+00   0.00000000000000E+00   0.00000000000000E+00
      2.76310286780833E-14  -1.74772944535146E-16   2.74562557335481E-14   1.37701170328845E-08
      6.66776955026619E-02
      3.33388462366148E+00   3.33388462366149E+00   0.00000000000000E+00   0.00000000000000E+00  -9.08198749576010E-26
      9.08198749576010E-26   0.00000000000000E+00   2.03271027305728E-08   3.33388462366148E+00   3.33388462366148E+00
      0.00000000000000E+00   0.00000000000000E+00  -1.70471413489312E-16  -2.76664869810928E-14  -2.78369583945821E-14
     -3.40972197815714E-08   3.33388477513309E+00   3.33388477513308E+00   0.00000000000000E+00   0.00000000000000E+00
      2.78550809933643E-14  -1.81225987823976E-17   2.78369583945819E-14   1.37701170509988E-08
      6.73928662203914E-02
      3.36964315839674E+00   3.36964315839672E+00   0.00000000000000E+00   0.00000000000000E+00  -7.24345463378186E-26
      7.24345463378186E-26   0.00000000000000E+00   2.03271027236049E-08   3.36964315839674E+00   3.36964315839673E+00
      0.00000000000000E+00   0.00000000000000E+00  -2.34783007881496E-17  -2.79207168040403E-14  -2.79441951048284E-14
     -3.40972198042203E-08   3.36964331101957E+00   3.36964331101956E+00   0.00000000000000E+00   0.00000000000000E+00
      2.79184958730927E-14   2.56992317356472E-17   2.79441951048284E-14   1.37701170806151E-08
      6.84596625410046E-02
      3.42298297257982E+00   3.42298297257981E+00   0.00000000000000E+00   0.00000000000000E+00  -6.19695032738372E-26
      6.19695032738372E-26   0.00000000000000E+00   2.03271027124222E-08   3.42298297257982E+00   3.42298297257982E+00
      0.00000000000000E+00   0.00000000000000E+00  -2.82916874325286E-16  -2.83073044845953E-14  -2.85902213589206E-14
     -3.40972198405693E-08   3.42298312705023E+00   3.42298312705022E+00   0.00000000000000E+00   0.00000000000000E+00
      2.85156187646573E-14   7.46025942627730E-17   2.85902213589201E-14   1.37701171281469E-08
      6.87071592873869E-02
      3.43535780946829E+00   3.43535780946828E+00   0.00000000000000E+00   0.00000000000000E+00  -6.29750156331425E-26
      6.29750156331425E-26   0.00000000000000E+00   2.03271027098157E-08   3.43535780946829E+00   3.43535780946828E+00
      0.00000000000000E+00   0.00000000000000E+00   2.35021850408643E-16  -2.75188838037870E-14  -2.72838619533784E-14
     -3.40972198490415E-08   3.43535796436934E+00   3.43535796436934E+00   0.00000000000000E+00   0.00000000000000E+00
      2.80763892299998E-14  -7.92527276621483E-16   2.72838619533783E-14   1.37701171392258E-08
      6.90639670967546E-02
      3.45319819932515E+00   3.45319819932514E+00   0.00000000000000E+00   0.00000000000000E+00  -6.75814859156055E-26
      6.75814859156055E-26   0.00000000000000E+00   2.03271027061143E-08   3.45319819932515E+00   3.45319819932514E+00
      0.00000000000000E+00   0.00000000000000E+00   5.86752068313351E-16  -2.84329218383531E-14  -2.78461697700398E-14
     -3.40972198610726E-08   3.45319835483773E+00   3.45319835483773E+00   0.00000000000000E+00   0.00000000000000E+00
      2.78364289196664E-14   9.74085037329293E-18   2.78461697700397E-14   1.37701171549583E-08
      6.92637794700006E-02
      3.46318881765243E+00   3.46318881765243E+00   0.00000000000000E+00   0.00000000000000E+00  -5.49340061906883E-26
      5.49340061906883E-26   0.00000000000000E+00   2.03271027040867E-08   3.46318881765243E+00   3.46318881765243E+00
      0.00000000000000E+00   0.00000000000000E+00   4.25698643968078E-16  -2.80651375064320E-14  -2.76394388624639E-14
     -3.40972198676637E-08   3.46318897350003E+00   3.46318897350003E+00   0.00000000000000E+00   0.00000000000000E+00
      2.80587134024000E-14  -4.19274539936081E-16   2.76394388624639E-14   1.37701171635771E-08
      6.95585027205383E-02
      3.47792497968317E+00   3.47792497968319E+00   0.00000000000000E+00   0.00000000000000E+00  -8.62119702419877E-26
      8.62119702419877E-26   0.00000000000000E+00   2.03271027010836E-08   3.47792497968317E+00   3.47792497968318E+00
      0.00000000000000E+00   0.00000000000000E+00  -1.28615692057429E-17  -2.82284578933053E-14  -2.82413194625110E-14
     -3.40972198774247E-08   3.47792513602692E+00   3.47792513602691E+00   0.00000000000000E+00   0.00000000000000E+00
      2.85879537453377E-14  -3.46634282827252E-16   2.82413194625104E-14   1.37701171763409E-08
      6.97284597950151E-02
      3.48642283315156E+00   3.48642283315158E+00   0.00000000000000E+00   0.00000000000000E+00  -4.97214437910703E-26
      4.97214437910703E-26   0.00000000000000E+00   2.03271026995375E-08   3.48642283315156E+00   3.48642283315157E+00
      0.00000000000000E+00   0.00000000000000E+00  -1.95369513194436E-16  -2.93186526813373E-14  -2.95140221945317E-14
     -3.40972198824505E-08   3.48642298975076E+00   3.48642298975075E+00   0.00000000000000E+00   0.00000000000000E+00
      2.88171510106480E-14   6.96871183883173E-16   2.95140221945311E-14   1.37701171829130E-08
      6.98236357567221E-02
      3.49118163108850E+00   3.49118163108848E+00   0.00000000000000E+00   0.00000000000000E+00  -9.63995773707051E-26
      9.63995773707051E-26   0.00000000000000E+00   2.03271026986392E-08   3.49118163108850E+00   3.49118163108849E+00
      0.00000000000000E+00   0.00000000000000E+00  -9.43560112326573E-17  -2.90122885109767E-14  -2.91066445222094E-14
     -3.40972198853703E-08   3.49118178783611E+00   3.49118178783610E+00   0.00000000000000E+00   0.00000000000000E+00
      2.87432628957689E-14   3.63381626439783E-16   2.91066445222087E-14   1.37701171867311E-08
      6.99632271672257E-02
      3.49816120139964E+00   3.49816120139962E+00   0.00000000000000E+00   0.00000000000000E+00  -7.44034220887833E-26
      7.44034220887833E-26   0.00000000000000E+00   2.03271026973437E-08   3.49816120139964E+00   3.49816120139963E+00
      0.00000000000000E+00   0.00000000000000E+00   2.39102787097231E-16  -2.84831303958173E-14  -2.82440276087200E-14
     -3.40972198895812E-08   3.49816135836129E+00   3.49816135836129E+00   0.00000000000000E+00   0.00000000000000E+00
      2.84489244980116E-14  -2.04896889292242E-16   2.82440276087194E-14   1.37701171922376E-08
      7.01714510212269E-02
      3.50857239378904E+00   3.50857239378902E+00   0.00000000000000E+00   0.00000000000000E+00  -6.89846101620766E-26
      6.89846101620766E-26   0.00000000000000E+00   2.03271026954634E-08   3.50857239378904E+00   3.50857239378903E+00
      0.00000000000000E+00   0.00000000000000E+00   1.87251450967021E-16  -2.98152699366891E-14  -2.96280184857221E-14
     -3.40972198956931E-08   3.50857255106135E+00   3.50857255106134E+00   0.00000000000000E+00   0.00000000000000E+00
      2.85575553731569E-14   1.07046311256472E-15   2.96280184857216E-14   1.37701172002297E-08
      7.02908326975209E-02
      3.51454147744284E+00   3.51454147744284E+00   0.00000000000000E+00   0.00000000000000E+00  -7.75042426919353E-26
      7.75042426919353E-26   0.00000000000000E+00   2.03271026944895E-08   3.51454147744284E+00   3.51454147744284E+00
      0.00000000000000E+00   0.00000000000000E+00   3.29972129410073E-16  -2.88985060616388E-14  -2.85685339322288E-14
     -3.40972198988588E-08   3.51454163487605E+00   3.51454163487605E+00   0.00000000000000E+00   0.00000000000000E+00
      2.84442428075730E-14   1.24291124655475E-16   2.85685339322285E-14   1.37701172043690E-08
      7.04470237240056E-02
      3.52235102853344E+00   3.52235102853344E+00   0.00000000000000E+00   0.00000000000000E+00  -5.82068225201622E-26
      5.82068225201622E-26   0.00000000000000E+00   2.03271026930755E-08   3.52235102853344E+00   3.52235102853343E+00
      0.00000000000000E+00   0.00000000000000E+00   2.80380601496164E-16  -2.95226699764786E-14  -2.92422893749824E-14
     -3.40972199034550E-08   3.52235118620028E+00   3.52235118620029E+00   0.00000000000000E+00   0.00000000000000E+00
      2.85365348359284E-14   7.05754539053768E-16   2.92422893749822E-14   1.37701172103795E-08
      7.06800086718453E-02
      3.53400027560665E+00   3.53400027560664E+00   0.00000000000000E+00   0.00000000000000E+00  -6.66223579548390E-26
      6.66223579548390E-26   0.00000000000000E+00   2.03271026911461E-08   3.53400027560665E+00   3.53400027560664E+00
      0.00000000000000E+00   0.00000000000000E+00   1.38298321280676E-16  -2.92860637994629E-14  -2.91477654781822E-14
     -3.40972199097263E-08   3.53400043359226E+00   3.53400043359226E+00   0.00000000000000E+00   0.00000000000000E+00
      2.87368789275702E-14   4.10886550611928E-16   2.91477654781821E-14   1.37701172185803E-08
      7.07017539336436E-02
      3.53508753866708E+00   3.53508753866711E+00   0.00000000000000E+00   0.00000000000000E+00  -7.37372174388608E-26
      7.37372174388608E-26   0.00000000000000E+00   2.03271026909675E-08   3.53508753866708E+00   3.53508753866710E+00
      0.00000000000000E+00   0.00000000000000E+00   2.45682904593631E-16  -2.83094764707199E-14  -2.80637935661263E-14
     -3.40972199103064E-08   3.53508769668218E+00   3.53508769668217E+00   0.00000000000000E+00   0.00000000000000E+00
      2.86348838147200E-14  -5.71090248594018E-16   2.80637935661260E-14   1.37701172193389E-08
      7.07334657737662E-02
      3.53667313063157E+00   3.53667313063156E+00   0.00000000000000E+00   0.00000000000000E+00  -7.91995219112694E-26
      7.91995219112694E-26   0.00000000000000E+00   2.03271026907155E-08   3.53667313063157E+00   3.53667313063156E+00
      0.00000000000000E+00   0.00000000000000E+00  -8.43467369307537E-17  -2.85148311068791E-14  -2.85991778438099E-14
     -3.40972199111259E-08   3.53667328868831E+00   3.53667328868832E+00   0.00000000000000E+00   0.00000000000000E+00
      2.89725253958697E-14  -3.73347552060153E-16   2.85991778438095E-14   1.37701172204103E-08
      7.07409497680352E-02
      3.53704733033511E+00   3.53704733033512E+00   0.00000000000000E+00   0.00000000000000E+00  -5.34699297357589E-26
      5.34699297357589E-26   0.00000000000000E+00   2.03271026906556E-08   3.53704733033511E+00   3.53704733033512E+00
      0.00000000000000E+00   0.00000000000000E+00  -3.08510711202102E-16  -2.89465102816656E-14  -2.92550209928677E-14
     -3.40972199113208E-08   3.53704748840176E+00   3.53704748840175E+00   0.00000000000000E+00   0.00000000000000E+00
      2.91984987400512E-14   5.65222528164339E-17   2.92550209928676E-14   1.37701172206649E-08
      7.07425164175021E-02
      3.53712566280639E+00   3.53712566280640E+00   0.00000000000000E+00   0.00000000000000E+00  -7.84336673678165E-26
      7.84336673678165E-26   0.00000000000000E+00   2.03271026906430E-08   3.53712566280639E+00   3.53712566280640E+00
      0.00000000000000E+00   0.00000000000000E+00   1.80601033225366E-16  -2.78491159878769E-14  -2.76685149546515E-14
     -3.40972199113615E-08   3.53712582087511E+00   3.53712582087510E+00   0.00000000000000E+00   0.00000000000000E+00
      2.87097660363303E-14  -1.04125108167906E-15   2.76685149546512E-14   1.37701172207184E-08
      7.07448272254659E-02
      3.53724120320153E+00   3.53724120320152E+00   0.00000000000000E+00   0.00000000000000E+00  -8.04149624269459E-26
      8.04149624269459E-26   0.00000000000000E+00   2.03271026906246E-08   3.53724120320153E+00   3.53724120320153E+00
      0.00000000000000E+00   0.00000000000000E+00   1.81030792133586E-16  -2.88418372673405E-14  -2.86608064752069E-14
     -3.40972199114214E-08   3.53724136127329E+00   3.53724136127329E+00   0.00000000000000E+00   0.00000000000000E+00
      2.87098938396897E-14  -4.90873644831997E-17   2.86608064752066E-14   1.37701172207969E-08
      7.07482934374116E-02
      3.53741451379423E+00   3.53741451379424E+00   0.00000000000000E+00   0.00000000000000E+00  -8.75994406709149E-26
      8.75994406709149E-26   0.00000000000000E+00   2.03271026905969E-08   3.53741451379423E+00   3.53741451379424E+00
      0.00000000000000E+00   0.00000000000000E+00   1.61686822168565E-17  -2.89412174259966E-14  -2.89250487437798E-14
     -3.40972199115114E-08   3.53741467187058E+00   3.53741467187057E+00   0.00000000000000E+00   0.00000000000000E+00
      2.88755923269083E-14   4.94564168714218E-17   2.89250487437797E-14   1.37701172209145E-08
      7.07534927553301E-02
      3.53767447968330E+00   3.53767447968329E+00   0.00000000000000E+00   0.00000000000000E+00  -6.84310120299251E-26
      6.84310120299251E-26   0.00000000000000E+00   2.03271026905554E-08   3.53767447968330E+00   3.53767447968329E+00
      0.00000000000000E+00   0.00000000000000E+00  -1.43855457167595E-16  -2.89076804503172E-14  -2.90515359074848E-14
     -3.40972199116466E-08   3.53767463776650E+00   3.53767463776651E+00   0.00000000000000E+00   0.00000000000000E+00
      2.90368702271172E-14   1.46656803671996E-17   2.90515359074844E-14   1.37701172210910E-08
      7.07612917322078E-02
      3.53806442851691E+00   3.53806442851693E+00   0.00000000000000E+00   0.00000000000000E+00  -6.71977789730179E-26
      6.71977789730179E-26   0.00000000000000E+00   2.03271026904931E-08   3.53806442851691E+00   3.53806442851692E+00
      0.00000000000000E+00   0.00000000000000E+00   3.77566055200118E-16  -2.84113374140738E-14  -2.80337713588737E-14
     -3.40972199118486E-08   3.53806458661039E+00   3.53806458661039E+00   0.00000000000000E+00   0.00000000000000E+00
      2.85173268635632E-14  -4.83555504689385E-16   2.80337713588738E-14   1.37701172213554E-08
      7.07729901975244E-02
      3.53864935176735E+00   3.53864935176735E+00   0.00000000000000E+00   0.00000000000000E+00  -6.95431831880298E-26
      6.95431831880298E-26   0.00000000000000E+00   2.03271026904000E-08   3.53864935176735E+00   3.53864935176735E+00
      0.00000000000000E+00   0.00000000000000E+00   3.15810093691876E-16  -2.87389417800407E-14  -2.84231316863488E-14
     -3.40972199121513E-08   3.53864950987622E+00   3.53864950987622E+00   0.00000000000000E+00   0.00000000000000E+00
      2.85818948447961E-14  -1.58763158447474E-16   2.84231316863486E-14   1.37701172217512E-08
      7.07905378954993E-02
      3.53952673664309E+00   3.53952673664307E+00   0.00000000000000E+00   0.00000000000000E+00  -6.97714595251344E-26
      6.97714595251344E-26   0.00000000000000E+00   2.03271026902607E-08   3.53952673664309E+00   3.53952673664308E+00
      0.00000000000000E+00   0.00000000000000E+00   7.36944896165782E-17  -2.89244427646174E-14  -2.88507482750008E-14
     -3.40972199126040E-08   3.53952689477496E+00   3.53952689477498E+00   0.00000000000000E+00   0.00000000000000E+00
      2.88282162084425E-14   2.25320665580469E-17   2.88507482750006E-14   1.37701172223433E-08
      7.08168594424616E-02
      3.54084281395684E+00   3.54084281395684E+00   0.00000000000000E+00   0.00000000000000E+00  -7.32306376730053E-26
      7.32306376730053E-26   0.00000000000000E+00   2.03271026900527E-08   3.54084281395684E+00   3.54084281395684E+00
      0.00000000000000E+00   0.00000000000000E+00   2.18813478863174E-16  -2.89891754666785E-14  -2.87703619878153E-14
     -3.40972199132801E-08   3.54084297212308E+00   3.54084297212308E+00   0.00000000000000E+00   0.00000000000000E+00
      2.86893785526079E-14   8.09834352072083E-17   2.87703619878151E-14   1.37701172232273E-08
      7.08563417629051E-02
      3.54281692992779E+00   3.54281692992779E+00   0.00000000000000E+00   0.00000000000000E+00  -7.72781738720831E-26