DF-ISE text

Info {
  version   = 1.0
  type      = xyplot
  datasets  = [
    "time"
    "Gate OuterVoltage" "Gate InnerVoltage" "Gate QuasiFermiPotential" "Gate DisplacementCurrent" "Gate eCurrent"
    "Gate hCurrent" "Gate TotalCurrent" "Gate Charge" "Emitter OuterVoltage" "Emitter InnerVoltage"
    "Emitter QuasiFermiPotential" "Emitter DisplacementCurrent" "Emitter eCurrent" "Emitter hCurrent" "Emitter TotalCurrent"
    "Emitter Charge" "Collector OuterVoltage" "Collector InnerVoltage" "Collector QuasiFermiPotential" "Collector DisplacementCurrent"
    "Collector eCurrent" "Collector hCurrent" "Collector TotalCurrent" "Collector Charge" ]
  functions = [
    Time
    OuterVoltage InnerVoltage QuasiFermiPotential DisplacementCurrent eCurrent
    hCurrent TotalCurrent Charge OuterVoltage InnerVoltage
    QuasiFermiPotential DisplacementCurrent eCurrent hCurrent TotalCurrent
    Charge OuterVoltage InnerVoltage QuasiFermiPotential DisplacementCurrent
    eCurrent hCurrent TotalCurrent Charge ]
}

Data {
      0.00000000000000E+00
      0.00000000000000E+00   0.00000000000000E+00   0.00000000000000E+00   0.00000000000000E+00  -9.90173405183172E-26
      9.90173405183172E-26   0.00000000000000E+00   2.03271036440394E-08   0.00000000000000E+00   0.00000000000000E+00
      0.00000000000000E+00   0.00000000000000E+00   1.52013457339832E-17   3.49507445179220E-16   3.64708790913203E-16
     -3.40972168015705E-08   0.00000000000000E+00   0.00000000000000E+00   0.00000000000000E+00   0.00000000000000E+00
     -1.52013974723479E-17  -3.49507393440863E-16  -3.64708790913211E-16   1.37701131575309E-08
      0.00000000000000E+00
      0.00000000000000E+00   0.00000000000000E+00   0.00000000000000E+00   0.00000000000000E+00  -7.27613360371863E-26
      7.27613360371863E-26   0.00000000000000E+00   2.03271036473717E-08   1.77445462937087E-20   0.00000000000000E+00
      0.00000000000000E+00   0.00000000000000E+00   2.23717975304184E-18  -3.62446187749391E-17  -3.40074390218972E-17
     -3.40972168015527E-08   0.00000000000000E+00   0.00000000000000E+00   0.00000000000000E+00   0.00000000000000E+00
     -2.23728951357924E-18   3.62447285354752E-17   3.40074390218959E-17   1.37701131541808E-08
      0.00000000000000E+00
      0.00000000000000E+00   0.00000000000000E+00   0.00000000000000E+00   0.00000000000000E+00  -4.96655548992567E-26
      4.96655548992567E-26   0.00000000000000E+00   2.03271036473717E-08  -8.27014930770245E-24   0.00000000000000E+00
      0.00000000000000E+00   0.00000000000000E+00  -5.20927639535451E-18   2.19265060138553E-17   1.67172296185008E-17
     -3.40972168015527E-08   0.00000000000000E+00   0.00000000000000E+00   0.00000000000000E+00   0.00000000000000E+00
      5.20916444236228E-18  -2.19263940608632E-17  -1.67172296185009E-17   1.37701131541808E-08
}
