DF-ISE text

Info {
  version   = 1.0
  type      = xyplot
  datasets  = [
    "time"
    "Gate OuterVoltage" "Gate InnerVoltage" "Gate QuasiFermiPotential" "Gate DisplacementCurrent" "Gate eCurrent"
    "Gate hCurrent" "Gate TotalCurrent" "Gate Charge" "Emitter OuterVoltage" "Emitter InnerVoltage"
    "Emitter QuasiFermiPotential" "Emitter DisplacementCurrent" "Emitter eCurrent" "Emitter hCurrent" "Emitter TotalCurrent"
    "Emitter Charge" "Collector OuterVoltage" "Collector InnerVoltage" "Collector QuasiFermiPotential" "Collector DisplacementCurrent"
    "Collector eCurrent" "Collector hCurrent" "Collector TotalCurrent" "Collector Charge" ]
  functions = [
    Time
    OuterVoltage InnerVoltage QuasiFermiPotential DisplacementCurrent eCurrent
    hCurrent TotalCurrent Charge OuterVoltage InnerVoltage
    QuasiFermiPotential DisplacementCurrent eCurrent hCurrent TotalCurrent
    Charge OuterVoltage InnerVoltage QuasiFermiPotential DisplacementCurrent
    eCurrent hCurrent TotalCurrent Charge ]
}

Data {
      0.00000000000000E+00
      0.00000000000000E+00   0.00000000000000E+00   0.00000000000000E+00   0.00000000000000E+00  -9.90173405183172E-26
      9.90173405183172E-26   0.00000000000000E+00   2.03271036440394E-08   0.00000000000000E+00   0.00000000000000E+00
      0.00000000000000E+00   0.00000000000000E+00   1.51942488425956E-17   3.49498503660078E-16   3.64692752502674E-16
     -3.40972168015705E-08   0.00000000000000E+00   0.00000000000000E+00   0.00000000000000E+00   0.00000000000000E+00
     -1.51943005809947E-17  -3.49498451921687E-16  -3.64692752502681E-16   1.37701131575309E-08
      0.00000000000000E+00
      0.00000000000000E+00   0.00000000000000E+00   0.00000000000000E+00   0.00000000000000E+00  -7.27613360371863E-26
      7.27613360371863E-26   0.00000000000000E+00   2.03271036473717E-08   0.00000000000000E+00   0.00000000000000E+00
      0.00000000000000E+00   0.00000000000000E+00   2.27647069290399E-18  -3.62308223075905E-17  -3.39543516146865E-17
     -3.40972168015527E-08   0.00000000000000E+00   0.00000000000000E+00   0.00000000000000E+00   0.00000000000000E+00
     -2.27658031191183E-18   3.62309319265970E-17   3.39543516146852E-17   1.37701131541808E-08
      0.00000000000000E+00
      0.00000000000000E+00   0.00000000000000E+00   0.00000000000000E+00   0.00000000000000E+00  -4.96655548992567E-26
      4.96655548992567E-26   0.00000000000000E+00   2.03271036473717E-08   0.00000000000000E+00   0.00000000000000E+00
      0.00000000000000E+00   0.00000000000000E+00  -4.72435747841961E-18   2.17202399232433E-17   1.69958824448237E-17
     -3.40972168015527E-08   0.00000000000000E+00   0.00000000000000E+00   0.00000000000000E+00   0.00000000000000E+00
      4.72424557458465E-18  -2.17201280194084E-17  -1.69958824448238E-17   1.37701131541808E-08
      1.00000000000000E-02
      1.50000000000000E-01   1.50000000000000E-01   0.00000000000000E+00   0.00000000000000E+00  -7.57533444499513E-26
      7.57533444499513E-26   0.00000000000000E+00   2.40876945056986E-08   0.00000000000000E+00   0.00000000000000E+00
      0.00000000000000E+00   0.00000000000000E+00   1.66035319338698E-16  -1.36174564181392E-17   1.52417862920559E-16
     -3.69119059746134E-08   0.00000000000000E+00   0.00000000000000E+00   0.00000000000000E+00   0.00000000000000E+00
     -1.65987052539697E-16   1.35691896191384E-17  -1.52417862920559E-16   1.28242114689146E-08
      2.34444444444444E-02
      3.51666666666667E-01   3.51666666666667E-01   0.00000000000000E+00   0.00000000000000E+00  -1.01984811597642E-25
      1.01984811597642E-25   0.00000000000000E+00   2.92801128501882E-08   0.00000000000000E+00   0.00000000000000E+00
      0.00000000000000E+00   0.00000000000000E+00  -4.69770513097059E-17  -1.51644043528132E-17  -6.21414556625191E-17
     -4.07495968419134E-08   0.00000000000000E+00   0.00000000000000E+00   0.00000000000000E+00   0.00000000000000E+00
      5.04767292894777E-17   1.16647263730420E-17   6.21414556625197E-17   1.14694839917251E-08
      4.15197530864198E-02
      6.22796296296296E-01   6.22796296296296E-01   0.00000000000000E+00   0.00000000000000E+00  -1.04732549520299E-25
      1.04732549520299E-25   0.00000000000000E+00   3.64419481684828E-08   0.00000000000000E+00   0.00000000000000E+00
      0.00000000000000E+00   0.00000000000000E+00   4.22471475680280E-15  -7.85426218731178E-17   4.14617213492969E-15
     -4.60333585134619E-08   0.00000000000000E+00   0.00000000000000E+00   0.00000000000000E+00   0.00000000000000E+00
     -4.16079780169618E-15   1.46256667665294E-17  -4.14617213492965E-15   9.59141034497908E-09
      6.62226748971194E-02
      9.93340123456790E-01   9.93340123456790E-01   0.00000000000000E+00   0.00000000000000E+00  -8.99593986421088E-26
      8.99593986421088E-26   0.00000000000000E+00   4.63454256782347E-08   0.00000000000000E+00   0.00000000000000E+00
      0.00000000000000E+00   0.00000000000000E+00   1.17446858224650E-15  -8.31398941507429E-17   1.09132868809576E-15
     -5.33378456255777E-08   0.00000000000000E+00   0.00000000000000E+00   0.00000000000000E+00   0.00000000000000E+00
     -1.08125096394657E-15  -1.00777241492088E-17  -1.09132868809578E-15   6.99241994734312E-09
      9.61406579789666E-02
      1.44210986968450E+00   1.44210986968450E+00   0.00000000000000E+00   0.00000000000000E+00  -8.50800532632739E-26
      8.50800532632739E-26   0.00000000000000E+00   5.83931465283380E-08   0.00000000000000E+00   0.00000000000000E+00
      0.00000000000000E+00   0.00000000000000E+00   2.12870221328581E-16  -3.91162441046248E-16  -1.78292219717666E-16
     -6.22083146118488E-08   0.00000000000000E+00   0.00000000000000E+00   0.00000000000000E+00   0.00000000000000E+00
      1.55229019370834E-16   2.30632003467752E-17   1.78292219717609E-16   3.81516808351075E-09
      1.37028568190825E-01
      2.05542852286237E+00   2.05542852286237E+00   0.00000000000000E+00   0.00000000000000E+00  -7.58132370785194E-26
      7.58132370785194E-26   0.00000000000000E+00   7.48757753831338E-08   0.00000000000000E+00   0.00000000000000E+00
      0.00000000000000E+00   0.00000000000000E+00  -5.82149197832510E-14  -5.73514618741590E-16  -5.87884344019926E-14
     -7.43173490711418E-08   0.00000000000000E+00   0.00000000000000E+00   0.00000000000000E+00   0.00000000000000E+00
      5.87811069226597E-14   7.32747932977693E-18   5.87884344019895E-14  -5.58426311991643E-10
      1.92908712147030E-01
      2.89363068220546E+00   2.89363068220546E+00   0.00000000000000E+00   0.00000000000000E+00  -5.82237701934250E-26
      5.82237701934250E-26   0.00000000000000E+00   9.73143054734552E-08   0.00000000000000E+00   0.00000000000000E+00
      0.00000000000000E+00   0.00000000000000E+00  -8.61499070479641E-15  -1.18926312317294E-16  -8.73391701711370E-15
     -9.07428872389448E-08   0.00000000000000E+00   0.00000000000000E+00   0.00000000000000E+00   0.00000000000000E+00
      8.71195141303558E-15   2.19656040775812E-17   8.73391701711316E-15  -6.57141823451065E-09
      2.66794680266903E-01
      4.00192020400354E+00   4.00192020400354E+00   0.00000000000000E+00   0.00000000000000E+00  -6.54430212990142E-26
      6.54430212990142E-26   0.00000000000000E+00   1.26715889047952E-07   0.00000000000000E+00   0.00000000000000E+00
      0.00000000000000E+00   0.00000000000000E+00   6.67138847303752E-14  -2.84305380606901E-17   6.66854541923145E-14
     -1.12159022205465E-07   0.00000000000000E+00   0.00000000000000E+00   0.00000000000000E+00   0.00000000000000E+00
     -6.67143038677271E-14   2.88496754103082E-17  -6.66854541923168E-14  -1.45568668424861E-08
      2.97334213756450E-01
      4.46001320634675E+00   4.46001320634675E+00   0.00000000000000E+00   0.00000000000000E+00  -5.18628474015786E-26
      5.18628474015786E-26   0.00000000000000E+00   1.38806001151867E-07   0.00000000000000E+00   0.00000000000000E+00
      0.00000000000000E+00   0.00000000000000E+00   1.80278375755833E-14  -1.12820226471812E-17   1.80165555529361E-14
     -1.20941295459922E-07   0.00000000000000E+00   0.00000000000000E+00   0.00000000000000E+00   0.00000000000000E+00
     -1.80278581262116E-14   1.13025732757961E-17  -1.80165555529358E-14  -1.78647056919450E-08
      3.40428888791700E-01
      5.10643333187550E+00   5.10643333187550E+00   0.00000000000000E+00   0.00000000000000E+00  -8.09185191316544E-26
      8.09185191316544E-26   0.00000000000000E+00   1.55834450838053E-07   0.00000000000000E+00   0.00000000000000E+00
      0.00000000000000E+00   0.00000000000000E+00   1.02907749497980E-13   1.28465318014272E-17   1.02920596029781E-13
     -1.33297139699785E-07   0.00000000000000E+00   0.00000000000000E+00   0.00000000000000E+00   0.00000000000000E+00
     -1.02908010919659E-13  -1.25851101197194E-17  -1.02920596029779E-13  -2.25373111382671E-08
      3.63987311144303E-01
      5.45980966716455E+00   5.45980966716455E+00   0.00000000000000E+00   0.00000000000000E+00  -5.61522751351320E-26
      5.61522751351320E-26   0.00000000000000E+00   1.65128883037824E-07   0.00000000000000E+00   0.00000000000000E+00
      0.00000000000000E+00   0.00000000000000E+00   6.70898027783197E-14   5.01611428273388E-17   6.71399639211471E-14
     -1.40035267313647E-07   0.00000000000000E+00   0.00000000000000E+00   0.00000000000000E+00   0.00000000000000E+00
     -6.70899746768985E-14  -4.99892442478937E-17  -6.71399639211464E-14  -2.50936157241773E-08
      3.97230862686310E-01
      5.95846294029465E+00   5.95846294029465E+00   0.00000000000000E+00   0.00000000000000E+00  -5.62288871135459E-26
      5.62288871135459E-26   0.00000000000000E+00   1.78266259857729E-07   0.00000000000000E+00   0.00000000000000E+00
      0.00000000000000E+00   0.00000000000000E+00  -1.22267042383311E-13  -6.94278843977762E-17  -1.22336470267708E-13
     -1.49563503062324E-07   0.00000000000000E+00   0.00000000000000E+00   0.00000000000000E+00   0.00000000000000E+00
      1.22267049103917E-13   6.94211637918621E-17   1.22336470267709E-13  -2.87027567954053E-08
      4.44141207640031E-01
      6.66211811460046E+00   6.66211811460046E+00   0.00000000000000E+00   0.00000000000000E+00  -6.02265314023436E-26
      6.02265314023436E-26   0.00000000000000E+00   1.97463339022645E-07   0.00000000000000E+00   0.00000000000000E+00
      0.00000000000000E+00   0.00000000000000E+00  -1.17389542753147E-13  -1.53054420631681E-17  -1.17404848195210E-13
     -1.63664532082239E-07   0.00000000000000E+00   0.00000000000000E+00   0.00000000000000E+00   0.00000000000000E+00
      1.17389541414540E-13   1.53067806760556E-17   1.17404848195216E-13  -3.37988069404061E-08
      5.09294464520198E-01
      7.63941696780298E+00   7.63941696780298E+00   0.00000000000000E+00   0.00000000000000E+00  -7.84020913372250E-26
      7.84020913372250E-26   0.00000000000000E+00   2.25093514408660E-07   0.00000000000000E+00   0.00000000000000E+00
      0.00000000000000E+00   0.00000000000000E+00   4.73661786340850E-13   5.41859581417255E-14   5.27847744482576E-13
     -1.84212047778687E-07   0.00000000000000E+00   0.00000000000000E+00   0.00000000000000E+00   0.00000000000000E+00
     -4.73661336101299E-13  -5.41864083812755E-14  -5.27847744482575E-13  -4.08814666299745E-08
      6.01232949228880E-01
      9.01849423843319E+00   9.01849423843319E+00   0.00000000000000E+00   0.00000000000000E+00  -6.72747119113133E-26
      6.72747119113133E-26   0.00000000000000E+00   2.64435856142623E-07   0.00000000000000E+00   0.00000000000000E+00
      0.00000000000000E+00   0.00000000000000E+00   5.78858080451663E-13   4.04956438967713E-17   5.78898576095560E-13
     -2.13552903303015E-07   0.00000000000000E+00   0.00000000000000E+00   0.00000000000000E+00   0.00000000000000E+00
     -5.78858082247749E-13  -4.04938477758780E-17  -5.78898576095525E-13  -5.08829528396105E-08
      7.01232949228880E-01
      1.05184942384332E+01   1.05184942384332E+01   0.00000000000000E+00   0.00000000000000E+00  -4.24253984788017E-26
      4.24253984788017E-26   0.00000000000000E+00   3.07358540048871E-07   0.00000000000000E+00   0.00000000000000E+00
      0.00000000000000E+00   0.00000000000000E+00   1.73801209362446E-13   1.82251588891923E-17   1.73819434521335E-13
     -2.45590369044146E-07   0.00000000000000E+00   0.00000000000000E+00   0.00000000000000E+00   0.00000000000000E+00
     -1.73811164103020E-13  -8.27041831462446E-18  -1.73819434521335E-13  -6.17681710047285E-08
      8.01232949228880E-01
      1.20184942384332E+01   1.20184942384332E+01   0.00000000000000E+00   0.00000000000000E+00  -5.10019751141813E-26
      5.10019751141813E-26   0.00000000000000E+00   3.50339582291829E-07   0.00000000000000E+00   0.00000000000000E+00
      0.00000000000000E+00   0.00000000000000E+00  -4.03761678433992E-14  -5.93051777248707E-17  -4.04354730211241E-14
     -2.77681098081779E-07   0.00000000000000E+00   0.00000000000000E+00   0.00000000000000E+00   0.00000000000000E+00
      4.03761652670624E-14   5.93077540610859E-17   4.04354730211235E-14  -7.26584842100504E-08
      9.01232949228880E-01
      1.35184942384332E+01   1.35184942384332E+01   0.00000000000000E+00   0.00000000000000E+00  -5.44498665037191E-26
      5.44498665037191E-26   0.00000000000000E+00   3.93353310155156E-07   0.00000000000000E+00   0.00000000000000E+00
      0.00000000000000E+00   0.00000000000000E+00   3.68833363321413E-10   4.70704096869331E-16   3.68833834025510E-10
     -3.09800697404179E-07   0.00000000000000E+00   0.00000000000000E+00   0.00000000000000E+00   0.00000000000000E+00
     -3.68833362783275E-10  -4.71242228089484E-16  -3.68833834025503E-10  -8.35526127509773E-08
      1.00000000000000E+00
      1.50000000000000E+01   1.50000000000000E+01   0.00000000000000E+00   0.00000000000000E+00  -6.37548658797767E-26
      6.37548658797767E-26   0.00000000000000E+00   4.35857536629027E-07   0.00000000000000E+00   0.00000000000000E+00
      0.00000000000000E+00   0.00000000000000E+00   2.28102916080098E-08   1.66824576467386E-13   2.28104584325863E-08
     -3.41542206631771E-07   0.00000000000000E+00   0.00000000000000E+00   0.00000000000000E+00   0.00000000000000E+00
     -2.28102916074862E-08  -1.66825100827702E-13  -2.28104584325870E-08  -9.43153299972545E-08
}
