DF-ISE text

Info {
  version   = 1.0
  type      = xyplot
  datasets  = [
    "time"
    "Gate OuterVoltage" "Gate InnerVoltage" "Gate QuasiFermiPotential" "Gate DisplacementCurrent" "Gate eCurrent"
    "Gate hCurrent" "Gate TotalCurrent" "Gate Charge" "Emitter OuterVoltage" "Emitter InnerVoltage"
    "Emitter QuasiFermiPotential" "Emitter DisplacementCurrent" "Emitter eCurrent" "Emitter hCurrent" "Emitter TotalCurrent"
    "Emitter Charge" "Collector OuterVoltage" "Collector InnerVoltage" "Collector QuasiFermiPotential" "Collector DisplacementCurrent"
    "Collector eCurrent" "Collector hCurrent" "Collector TotalCurrent" "Collector Charge" ]
  functions = [
    Time
    OuterVoltage InnerVoltage QuasiFermiPotential DisplacementCurrent eCurrent
    hCurrent TotalCurrent Charge OuterVoltage InnerVoltage
    QuasiFermiPotential DisplacementCurrent eCurrent hCurrent TotalCurrent
    Charge OuterVoltage InnerVoltage QuasiFermiPotential DisplacementCurrent
    eCurrent hCurrent TotalCurrent Charge ]
}

Data {
      0.00000000000000E+00
      0.00000000000000E+00   0.00000000000000E+00   0.00000000000000E+00   0.00000000000000E+00  -9.90173405183172E-26
      9.90173405183172E-26   0.00000000000000E+00   2.03271036440394E-08   0.00000000000000E+00   0.00000000000000E+00
      0.00000000000000E+00   0.00000000000000E+00   1.51932716283915E-17   3.49482838936328E-16   3.64676110564719E-16
     -3.40972168015705E-08   0.00000000000000E+00   0.00000000000000E+00   0.00000000000000E+00   0.00000000000000E+00
     -1.51933233667885E-17  -3.49482787197939E-16  -3.64676110564727E-16   1.37701131575309E-08
      0.00000000000000E+00
      0.00000000000000E+00   0.00000000000000E+00   0.00000000000000E+00   0.00000000000000E+00  -7.27613360371863E-26
      7.27613360371863E-26   0.00000000000000E+00   2.03271036473717E-08   0.00000000000000E+00   0.00000000000000E+00
      0.00000000000000E+00   0.00000000000000E+00   2.27665391977054E-18  -3.62253736318249E-17  -3.39487197120544E-17
     -3.40972168015527E-08   0.00000000000000E+00   0.00000000000000E+00   0.00000000000000E+00   0.00000000000000E+00
     -2.27676353487412E-18   3.62254832469272E-17   3.39487197120531E-17   1.37701131541808E-08
      0.00000000000000E+00
      0.00000000000000E+00   0.00000000000000E+00   0.00000000000000E+00   0.00000000000000E+00  -4.96655548992567E-26
      4.96655548992567E-26   0.00000000000000E+00   2.03271036473717E-08   0.00000000000000E+00   0.00000000000000E+00
      0.00000000000000E+00   0.00000000000000E+00  -4.72467431572755E-18   2.17141065417437E-17   1.69894322260161E-17
     -3.40972168015527E-08   0.00000000000000E+00   0.00000000000000E+00   0.00000000000000E+00   0.00000000000000E+00
      4.72456241651258E-18  -2.17139946425288E-17  -1.69894322260162E-17   1.37701131541808E-08
      1.00000000000000E-03
      0.00000000000000E+00   0.00000000000000E+00   0.00000000000000E+00   0.00000000000000E+00  -9.39180774845443E-26
      9.39180774845443E-26   0.00000000000000E+00   2.02969029936622E-08   0.00000000000000E+00   9.18447372075267E-16
      0.00000000000000E+00   0.00000000000000E+00  -6.76248929022501E-13  -8.73900108489303E-10  -8.74576357418325E-10
     -3.41953882693306E-08   5.00000000000000E-03   4.99999999999913E-03   0.00000000000000E+00   0.00000000000000E+00
      8.74304277121704E-10   2.72080296618286E-13   8.74576357418322E-10   1.38984852756681E-08
      2.86666666666667E-03
      0.00000000000000E+00   0.00000000000000E+00   0.00000000000000E+00   0.00000000000000E+00  -7.18553216196733E-26
      7.18553216196733E-26   0.00000000000000E+00   2.02408644870250E-08   0.00000000000000E+00   2.29611843018817E-15
      0.00000000000000E+00   0.00000000000000E+00   4.79236810423621E-12  -2.31218933135564E-09  -2.30739696325140E-09
     -3.43775830419258E-08   1.43333333333333E-02   1.43333333333310E-02   0.00000000000000E+00   0.00000000000000E+00
      2.30673925901577E-09   6.57704235619758E-13   2.30739696325139E-09   1.41367185549011E-08
      6.35111111111111E-03
      0.00000000000000E+00   0.00000000000000E+00   0.00000000000000E+00   0.00000000000000E+00  -3.60984523222264E-26
      3.60984523222264E-26   0.00000000000000E+00   2.01374493880439E-08   0.00000000000000E+00   4.50039212316881E-15
      0.00000000000000E+00   0.00000000000000E+00  -2.84566591015231E-12  -4.47104654512766E-09  -4.47389221103782E-09
     -3.47139783945643E-08   3.17555555555556E-02   3.17555555555511E-02   0.00000000000000E+00   0.00000000000000E+00
      4.47279758255259E-09   1.09462848520238E-12   4.47389221103780E-09   1.45765290065205E-08
      1.26231111111111E-02
      0.00000000000000E+00   0.00000000000000E+00   0.00000000000000E+00   0.00000000000000E+00  -6.22502431168517E-26
      6.22502431168517E-26   0.00000000000000E+00   1.99553497509777E-08   0.00000000000000E+00   7.25573423939461E-15
      0.00000000000000E+00   0.00000000000000E+00  -3.66812703469670E-12  -7.26296067487195E-09  -7.26662880190665E-09
     -3.53073024232737E-08   6.31155555555556E-02   6.31155555555484E-02   0.00000000000000E+00   0.00000000000000E+00
      7.26521503337776E-09   1.41376852885929E-12   7.26662880190662E-09   1.53519526722959E-08
      2.39127111111111E-02
      0.00000000000000E+00   0.00000000000000E+00   0.00000000000000E+00   0.00000000000000E+00  -8.64383921730233E-26
      8.64383921730233E-26   0.00000000000000E+00   1.96417912996311E-08   0.00000000000000E+00   1.07458342532806E-14
      0.00000000000000E+00   0.00000000000000E+00  -3.97036668956025E-12  -1.07553503087822E-08  -1.07593206754718E-08
     -3.63358891976901E-08   1.19563555555556E-01   1.19563555555545E-01   0.00000000000000E+00   0.00000000000000E+00
      1.07577859069659E-08   1.53476850586534E-12   1.07593206754718E-08   1.66940978980589E-08
      4.34813511111111E-02
      0.00000000000000E+00   0.00000000000000E+00   0.00000000000000E+00   0.00000000000000E+00  -4.93833201996874E-26
      4.93833201996874E-26   0.00000000000000E+00   1.91495085991973E-08   0.00000000000000E+00   1.54299158508645E-14
      0.00000000000000E+00   0.00000000000000E+00  -4.00592187173580E-12  -1.54321212792875E-08  -1.54361272011592E-08
     -3.80023981252031E-08   2.17406755555556E-01   2.17406755555540E-01   0.00000000000000E+00   0.00000000000000E+00
      1.54345751571914E-08   1.55204396771864E-12   1.54361272011592E-08   1.88528895260061E-08
      7.74003271111111E-02
      0.00000000000000E+00   0.00000000000000E+00   0.00000000000000E+00   0.00000000000000E+00  -8.27158992630723E-26
      8.27158992630723E-26   0.00000000000000E+00   1.84956768515832E-08   0.00000000000000E+00   2.16753579809763E-14
      0.00000000000000E+00   0.00000000000000E+00  -4.00732239666720E-12  -2.16573967073362E-08  -2.16614040297329E-08
     -4.05787073183128E-08   3.87001635555556E-01   3.87001635555534E-01   0.00000000000000E+00   0.00000000000000E+00
      2.16598477586185E-08   1.55627111434643E-12   2.16614040297329E-08   2.20830304667296E-08
      1.36193218844444E-01
      0.00000000000000E+00   0.00000000000000E+00   0.00000000000000E+00   0.00000000000000E+00  -7.06624550428686E-26
      7.06624550428686E-26   0.00000000000000E+00   1.79533517091847E-08   0.00000000000000E+00   2.71860422134279E-14
      0.00000000000000E+00   0.00000000000000E+00  -3.98408491092302E-12  -2.71683439732434E-08  -2.71723280581543E-08
     -4.43700272265221E-08   6.80966094222222E-01   6.80966094222195E-01   0.00000000000000E+00   0.00000000000000E+00
      2.71707701130751E-08   1.55794507908969E-12   2.71723280581542E-08   2.64166755173377E-08
      2.38100897848889E-01
      0.00000000000000E+00   0.00000000000000E+00   0.00000000000000E+00   0.00000000000000E+00  -5.88659597634384E-26
      5.88659597634384E-26   0.00000000000000E+00   1.75982390780680E-08   0.00000000000000E+00   4.78511080851214E-14
      0.00000000000000E+00   0.00000000000000E+00  -4.01034690656467E-12  -4.78411306476882E-08  -4.78451409945947E-08
     -5.01390875460140E-08   1.19050448924444E+00   1.19050448924440E+00   0.00000000000000E+00   0.00000000000000E+00
      4.78435700863906E-08   1.57090820431264E-12   4.78451409945949E-08   3.25408484679458E-08
      4.07947029522963E-01
      0.00000000000000E+00   0.00000000000000E+00   0.00000000000000E+00   0.00000000000000E+00  -6.55530918309832E-26
      6.55530918309832E-26   0.00000000000000E+00   1.74069743724533E-08   0.00000000000000E+00   6.17196634034580E-14
      0.00000000000000E+00   0.00000000000000E+00  -4.01070217752197E-12  -6.16790595316554E-08  -6.16830702338329E-08
     -5.84100704729210E-08   2.03973514761482E+00   2.03973514761476E+00   0.00000000000000E+00   0.00000000000000E+00
      6.16814887240638E-08   1.58150976865995E-12   6.16830702338325E-08   4.10030961004677E-08
      6.91023915646420E-01
      0.00000000000000E+00   0.00000000000000E+00   0.00000000000000E+00   0.00000000000000E+00  -5.59946598667193E-26
      5.59946598667193E-26   0.00000000000000E+00   1.72871899526163E-08   0.00000000000000E+00   7.74251134659451E-14
      0.00000000000000E+00   0.00000000000000E+00  -4.01512210413451E-12  -7.74385951602730E-08  -7.74426102823772E-08
     -7.01746940350436E-08   3.45511957823210E+00   3.45511957823202E+00   0.00000000000000E+00   0.00000000000000E+00
      7.74416616070872E-08   9.48675289546986E-13   7.74426102823767E-08   5.28875040824267E-08
      1.00000000000000E+00
      0.00000000000000E+00   0.00000000000000E+00   0.00000000000000E+00   0.00000000000000E+00  -5.90116691869911E-26
      5.90116691869911E-26   0.00000000000000E+00   1.71990951046028E-08   0.00000000000000E+00   8.33950213844343E-14
      0.00000000000000E+00   0.00000000000000E+00  -4.01862163194195E-12  -8.33829365512215E-08  -8.33869551728534E-08
     -8.17106042584929E-08   5.00000000000000E+00   4.99999999999991E+00   0.00000000000000E+00   0.00000000000000E+00
      8.33857142854220E-08   1.24088743131580E-12   8.33869551728534E-08   6.45115091538907E-08
}
