DF-ISE text

Info {
  version   = 1.0
  type      = xyplot
  datasets  = [
    "time"
    "Gate OuterVoltage" "Gate InnerVoltage" "Gate QuasiFermiPotential" "Gate DisplacementCurrent" "Gate eCurrent"
    "Gate hCurrent" "Gate TotalCurrent" "Gate Charge" "Emitter OuterVoltage" "Emitter InnerVoltage"
    "Emitter QuasiFermiPotential" "Emitter DisplacementCurrent" "Emitter eCurrent" "Emitter hCurrent" "Emitter TotalCurrent"
    "Emitter Charge" "Emitter Temperature" "Emitter lHeatFlux" "Collector OuterVoltage" "Collector InnerVoltage"
    "Collector QuasiFermiPotential" "Collector DisplacementCurrent" "Collector eCurrent" "Collector hCurrent" "Collector TotalCurrent"
    "Collector Charge" "Collector Temperature" "Collector lHeatFlux" "Tmin" "Tave"
    "Tmax" ]
  functions = [
    Time
    OuterVoltage InnerVoltage QuasiFermiPotential DisplacementCurrent eCurrent
    hCurrent TotalCurrent Charge OuterVoltage InnerVoltage
    QuasiFermiPotential DisplacementCurrent eCurrent hCurrent TotalCurrent
    Charge Temperature lHeatFlux OuterVoltage InnerVoltage
    QuasiFermiPotential DisplacementCurrent eCurrent hCurrent TotalCurrent
    Charge Temperature lHeatFlux MinTemperature AveTemperature
    MaxTemperature ]
}

Data {
      0.00000000000000E+00
      0.00000000000000E+00   0.00000000000000E+00   0.00000000000000E+00   0.00000000000000E+00  -9.90173405183172E-26
      9.90173405183172E-26   0.00000000000000E+00   2.03271036440394E-08   0.00000000000000E+00   0.00000000000000E+00
      0.00000000000000E+00   0.00000000000000E+00   1.51925997936354E-17   3.49475347112089E-16   3.64667946905725E-16
     -3.40972168015705E-08   3.00000000000000E+02   0.00000000000000E+00   0.00000000000000E+00   0.00000000000000E+00
      0.00000000000000E+00   0.00000000000000E+00  -1.51926515320324E-17  -3.49475295373700E-16  -3.64667946905732E-16
      1.37701131575309E-08   3.00000000000000E+02   0.00000000000000E+00   3.00000000000000E+02   2.99999999999966E+02
      3.00000000000000E+02
      0.00000000000000E+00
      0.00000000000000E+00   0.00000000000000E+00   0.00000000000000E+00   0.00000000000000E+00  -7.27613360371863E-26
      7.27613360371863E-26   0.00000000000000E+00   2.03271036473717E-08   0.00000000000000E+00   0.00000000000000E+00
      0.00000000000000E+00   0.00000000000000E+00   2.27738683044703E-18  -3.62151575078965E-17  -3.39377706774494E-17
     -3.40972168015527E-08   3.00000000000000E+02   0.00000000000000E+00   0.00000000000000E+00   0.00000000000000E+00
      0.00000000000000E+00   0.00000000000000E+00  -2.27749640347134E-18   3.62152670809195E-17   3.39377706774481E-17
      1.37701131541808E-08   3.00000000000000E+02   0.00000000000000E+00   3.00000000000000E+02   2.99999999999966E+02
      3.00000000000000E+02
      0.00000000000000E+00
      0.00000000000000E+00   0.00000000000000E+00   0.00000000000000E+00   0.00000000000000E+00  -4.22273184326014E-26
      4.22273184326014E-26   0.00000000000000E+00   2.03271036473717E-08   0.00000000000000E+00   0.00000000000000E+00
      0.00000000000000E+00   0.00000000000000E+00  -4.46703086696847E-18   2.13974797587870E-17   1.69304488918186E-17
     -3.40972168015527E-08   3.00000000000000E+02   0.00000000000000E+00   0.00000000000000E+00   0.00000000000000E+00
      0.00000000000000E+00   0.00000000000000E+00   4.46691879864114E-18  -2.13973676904600E-17  -1.69304488918188E-17
      1.37701131541808E-08   3.00000000000000E+02   0.00000000000000E+00   3.00000000000000E+02   2.99999999999966E+02
      3.00000000000000E+02
      0.00000000000000E+00
      0.00000000000000E+00   0.00000000000000E+00   0.00000000000000E+00   0.00000000000000E+00  -1.16211426578645E-25
      1.16211426578645E-25   0.00000000000000E+00   2.03271036473717E-08   0.00000000000000E+00   0.00000000000000E+00
      0.00000000000000E+00   0.00000000000000E+00  -9.23356011905033E-18   4.92359303070948E-18  -4.30996708834085E-18
     -3.40972168015527E-08   3.00000000000000E+02   0.00000000000000E+00   0.00000000000000E+00   0.00000000000000E+00
      0.00000000000000E+00   0.00000000000000E+00   9.23342365795171E-18  -4.92345656961064E-18   4.30996708834107E-18
      1.37701131541808E-08   3.00000000000000E+02   0.00000000000000E+00   3.00000000000000E+02   2.99999999999966E+02
      3.00000000000000E+02
      1.60000000000000E-03
      2.40000000000000E-02   2.40000000000000E-02   0.00000000000000E+00   0.00000000000000E+00  -7.01505299130675E-26
      7.01505299130675E-26   0.00000000000000E+00   2.09249352365505E-08   0.00000000000000E+00   0.00000000000000E+00
      0.00000000000000E+00   0.00000000000000E+00   2.66847745266341E-18  -3.24008558493291E-18  -5.71608132269498E-19
     -3.45487961577394E-08   3.00000000000000E+02   0.00000000000000E+00   0.00000000000000E+00   0.00000000000000E+00
      0.00000000000000E+00   0.00000000000000E+00  -2.66955256516648E-18   3.24116069743617E-18   5.71608132269686E-19
      1.36238609211886E-08   3.00000000000000E+02   0.00000000000000E+00   3.00000000000000E+02   2.99999999999966E+02
      3.00000000000000E+02
      3.74044444444444E-03
      5.61066666666667E-02   5.61066666666667E-02   0.00000000000000E+00   0.00000000000000E+00  -2.38957894542284E-25
      2.38957894542284E-25   0.00000000000000E+00   2.17269277156096E-08   0.00000000000000E+00  -2.70837605742650E-16
      0.00000000000000E+00   0.00000000000000E+00   2.38402112030149E-15   2.96326898248030E-16   2.68034801854952E-15
     -3.51518447232630E-08   3.00000000000000E+02   0.00000000000000E+00   0.00000000000000E+00  -2.86869479822243E-16
      0.00000000000000E+00   0.00000000000000E+00  -2.38402121049651E-15  -2.96326808053009E-16  -2.68034801854952E-15
      1.34249170076532E-08   3.00000000000000E+02   0.00000000000000E+00   3.00000000000000E+02   2.99999999999966E+02
      3.00000000000000E+02
      6.69901432098765E-03
      1.00485214814815E-01   1.00485214814815E-01   0.00000000000000E+00   0.00000000000000E+00  -2.23217522525968E-25
      2.23217522525968E-25   0.00000000000000E+00   2.28396265180202E-08   0.00000000000000E+00  -2.44745350854148E-16
      0.00000000000000E+00   0.00000000000000E+00   2.80851849235310E-14   1.78721480251243E-16   2.82639064037822E-14
     -3.59838846442137E-08   3.00000000000000E+02   0.00000000000000E+00   0.00000000000000E+00  -4.26671120951422E-16
      0.00000000000000E+00   0.00000000000000E+00  -2.80851851367192E-14  -1.78721267062516E-16  -2.82639064037817E-14
      1.31442581261934E-08   3.00000000000000E+02   0.00000000000000E+00   3.00000000000000E+02   2.99999999999966E+02
      3.00000000000000E+02
      1.07884153503429E-02
      1.61826230255144E-01   1.61826230255144E-01   0.00000000000000E+00   0.00000000000000E+00  -1.63143845587395E-25
      1.63143845587395E-25   0.00000000000000E+00   2.43870700475706E-08   0.00000000000000E+00  -3.48592525310386E-16
      0.00000000000000E+00   0.00000000000000E+00   1.72370347276690E-12  -3.77548184529982E-16   1.72332592458237E-12
     -3.71338821660080E-08   3.00000000000000E+02   0.00000000000000E+00   0.00000000000000E+00  -6.78081556661898E-16
      0.00000000000000E+00   0.00000000000000E+00  -1.72370351045214E-12   3.77585869825119E-16  -1.72332592458231E-12
      1.27468121184376E-08   3.00000000000000E+02   0.00000000000000E+00   3.00000000000000E+02   2.99999999999966E+02
      3.00000000000000E+02
      1.64408763286962E-02
      2.46613144930443E-01   2.46613144930443E-01   0.00000000000000E+00   0.00000000000000E+00  -2.04572983968277E-25
      2.04572983968277E-25   0.00000000000000E+00   2.65523806957491E-08   0.00000000000000E+00  -3.15194439053103E-16
      0.00000000000000E+00   0.00000000000000E+00  -1.77744997212674E-15   2.30585783866537E-17  -1.75439139374008E-15
     -3.87354968509901E-08   3.00000000000000E+02   0.00000000000000E+00   0.00000000000000E+00  -6.33903075473468E-16
      0.00000000000000E+00   0.00000000000000E+00   1.77704927367191E-15  -2.26578799318477E-17   1.75439139374006E-15
      1.21831161552409E-08   3.00000000000000E+02   0.00000000000000E+00   3.00000000000000E+02   2.99999999999966E+02
      3.00000000000000E+02
      2.42035894056348E-02
      3.63053841084521E-01   3.63053841084521E-01   0.00000000000000E+00   0.00000000000000E+00  -2.32641819723611E-25
      2.32641819723611E-25   0.00000000000000E+00   2.95780862807202E-08   0.00000000000000E+00  -3.74684780198887E-16
      0.00000000000000E+00   0.00000000000000E+00  -6.33000082693252E-14   1.06767182750464E-15  -6.22323364418206E-14
     -4.09695268319023E-08   3.00000000000000E+02   3.34019514294443E-11   0.00000000000000E+00  -6.57154907677905E-16
      0.00000000000000E+00   0.00000000000000E+00   6.32950001458982E-14  -1.06266370407991E-15   6.22323364418183E-14
      1.13914405511820E-08   3.00000000000000E+02   0.00000000000000E+00   3.00000000000000E+02   2.99999999999966E+02
      3.00000000000000E+02
      3.48643820312970E-02
      5.22965730469455E-01   5.22965730469455E-01   0.00000000000000E+00   0.00000000000000E+00  -1.70429254883923E-25
      1.70429254883923E-25   0.00000000000000E+00   3.37921068050291E-08   0.00000000000000E+00  -3.26153186106274E-16
      0.00000000000000E+00   0.00000000000000E+00  -3.38347355261177E-12   1.26866344742346E-15  -3.38220488916434E-12
     -4.40786583867001E-08   3.00000000000000E+02   1.51180771521358E-09   0.00000000000000E+00  -6.37390850304133E-16
      0.00000000000000E+00   0.00000000000000E+00   3.38336842235182E-12  -1.16353318748095E-15   3.38220488916434E-12
      1.02865515816709E-08   3.00000000000000E+02   7.01521628913694E-10   2.99999999999981E+02   2.99999999999965E+02
      3.00000000000000E+02
      4.95052039038732E-02
      7.42578058558097E-01   7.42578058558097E-01   0.00000000000000E+00   0.00000000000000E+00  -2.21721854522782E-25
      2.21721854522782E-25   0.00000000000000E+00   3.96345054714051E-08   0.00000000000000E+00  -4.03908105674010E-16
      0.00000000000000E+00   0.00000000000000E+00   2.54001817218673E-14  -2.98071556581071E-16   2.51021101652862E-14
     -4.83886742616015E-08   3.00000000000000E+02   0.00000000000000E+00   0.00000000000000E+00  -4.51085544766081E-16
      0.00000000000000E+00   0.00000000000000E+00  -2.53947205316436E-14   2.92610366357772E-16  -2.51021101652859E-14
      8.75416879019628E-09   3.00000000000000E+02   0.00000000000000E+00   3.00000000000000E+02   2.99999999999966E+02
      3.00000000000000E+02
      6.94817919700104E-02
      1.04222687955016E+00   1.04222687955016E+00   0.00000000000000E+00   0.00000000000000E+00  -1.96348600214554E-25
      1.96348600214554E-25   0.00000000000000E+00   4.76560942189192E-08   0.00000000000000E+00  -3.90340133131989E-16
      0.00000000000000E+00   0.00000000000000E+00  -2.31474088159503E-13  -5.07132471472265E-16  -2.31981220630976E-13
     -5.43037627893559E-08   3.00000000000000E+02   9.00992957586156E-11   0.00000000000000E+00  -6.45528991575686E-16
      0.00000000000000E+00   0.00000000000000E+00   2.31489085390980E-13   4.92135239983584E-16   2.31981220630964E-13
      6.64766857043656E-09   3.00000000000000E+02   0.00000000000000E+00   2.99999999999999E+02   2.99999999999966E+02
      3.00000000000000E+02
      9.65611669041075E-02
      1.44841750356161E+00   1.44841750356161E+00   0.00000000000000E+00   0.00000000000000E+00  -5.61206391472368E-26
      5.61206391472368E-26   0.00000000000000E+00   5.85626975162262E-08   0.00000000000000E+00   4.17476078216031E-18
      0.00000000000000E+00   0.00000000000000E+00   5.21012477575614E-14  -8.68835441259490E-17   5.20143642134354E-14
     -6.23330429485438E-08   3.00000000000000E+02   0.00000000000000E+00   0.00000000000000E+00   3.83655231373213E-17
      0.00000000000000E+00   0.00000000000000E+00  -5.20395977855095E-14   2.52335720745982E-17  -5.20143642134349E-14
      3.77034543231766E-09   3.00000000000000E+02   0.00000000000000E+00   3.00000000000000E+02   2.99999999999966E+02
      3.00000000000000E+02
      1.32546647372085E-01
      1.98819971058128E+00   1.98819971058128E+00   0.00000000000000E+00   0.00000000000000E+00  -2.13993434610878E-25
      2.13993434610878E-25   0.00000000000000E+00   7.30708887141180E-08   0.00000000000000E+00  -1.40898176397910E-16
      0.00000000000000E+00   0.00000000000000E+00  -3.71403474449914E-13  -2.98560872977487E-16  -3.71702035322892E-13
     -7.29932056446727E-08   3.00000000000000E+02   0.00000000000000E+00   0.00000000000000E+00   0.00000000000000E+00
      0.00000000000000E+00   0.00000000000000E+00   3.71551954488036E-13   1.50080834855468E-16   3.71702035322892E-13
     -7.76830694452093E-11   3.00000000000000E+02   0.00000000000000E+00   3.00000000000000E+02   2.99999999999966E+02
      3.00000000000000E+02
      1.81326965339789E-01
      2.71990448009683E+00   2.71990448009683E+00   0.00000000000000E+00   0.00000000000000E+00  -2.90557248821348E-25
      2.90557248821348E-25   0.00000000000000E+00   9.26768068095670E-08   0.00000000000000E+00  -1.77427333241813E-16
      0.00000000000000E+00   0.00000000000000E+00  -3.08691843646922E-13   1.61067719226706E-16  -3.08530775927695E-13
     -8.73540450856762E-08   3.00000000000000E+02   0.00000000000000E+00   0.00000000000000E+00   2.99367339632128E-17
      0.00000000000000E+00   0.00000000000000E+00   3.08840762785728E-13  -3.09986858031955E-16   3.08530775927696E-13
     -5.32276172389058E-09   3.00000000000000E+02   0.00000000000000E+00   3.00000000000000E+02   2.99999999999966E+02
      3.00000000000000E+02
      2.47017793536296E-01
      3.70526690304444E+00   3.70526690304444E+00   0.00000000000000E+00   0.00000000000000E+00  -2.08154201024078E-25
      2.08154201024078E-25   0.00000000000000E+00   1.18871226122423E-07   0.00000000000000E+00  -3.53289131190316E-16
      0.00000000000000E+00   0.00000000000000E+00   1.13740528033505E-12   1.21555202990487E-15   1.13862083236495E-12
     -1.06454545453969E-07   3.00000000000000E+02   0.00000000000000E+00   0.00000000000000E+00  -5.15028083328283E-16
      0.00000000000000E+00   0.00000000000000E+00  -1.13740625872520E-12  -1.21457363979183E-15  -1.13862083236499E-12
     -1.24166806684536E-08   3.00000000000000E+02   0.00000000000000E+00   3.00000000000000E+02   2.99999999999966E+02
      3.00000000000000E+02
      2.82403252991482E-01
      4.23604879487222E+00   4.23604879487222E+00   0.00000000000000E+00   0.00000000000000E+00  -2.15947740828548E-25
      2.15947740828548E-25   0.00000000000000E+00   1.32897861429879E-07   0.00000000000000E+00  -4.17997923313801E-16
      0.00000000000000E+00   0.00000000000000E+00   1.51675246397510E-12   4.66595846197671E-16   1.51721905982129E-12
     -1.16650786662054E-07   3.00000000000000E+02   2.31721448487844E-10   0.00000000000000E+00  -6.21114567761027E-16
      0.00000000000000E+00   0.00000000000000E+00  -1.51675225076660E-12  -4.66809054667480E-16  -1.51721905982127E-12
     -1.62470747678243E-08   3.00000000000000E+02   0.00000000000000E+00   2.99999999999998E+02   2.99999999999966E+02
      3.00000000000000E+02
      3.30055671724464E-01
      4.95083507586697E+00   4.95083507586697E+00   0.00000000000000E+00   0.00000000000000E+00  -2.29775261987104E-25
      2.29775261987104E-25   0.00000000000000E+00   1.51739054997046E-07   0.00000000000000E+00  -3.48592525310386E-16
      0.00000000000000E+00   0.00000000000000E+00   1.99301264999034E-13   5.28438001105003E-17   1.99354108799144E-13
     -1.30326926760874E-07   3.00000000000000E+02   0.00000000000000E+00   0.00000000000000E+00  -5.91468481700370E-16
      0.00000000000000E+00   0.00000000000000E+00  -1.99300615274382E-13  -5.34935247784915E-17  -1.99354108799160E-13
     -2.14121282361719E-08   3.00000000000000E+02   0.00000000000000E+00   3.00000000000000E+02   2.99999999999966E+02
      3.00000000000000E+02
      3.95074749729023E-01
      5.92612124593535E+00   5.92612124593535E+00   0.00000000000000E+00   0.00000000000000E+00  -2.82421592781764E-25
      2.82421592781764E-25   0.00000000000000E+00   1.77409540490695E-07   0.00000000000000E+00  -2.57269633200629E-16
      0.00000000000000E+00   0.00000000000000E+00  -9.55521855472620E-13   3.10270556431493E-16  -9.55211584916189E-13
     -1.48940926770171E-07   3.00000000000000E+02   0.00000000000000E+00   0.00000000000000E+00  -5.45836760999162E-16
      0.00000000000000E+00   0.00000000000000E+00   9.55521855566753E-13  -3.10270650580854E-16   9.55211584916172E-13
     -2.84686137205238E-08   3.00000000000000E+02   0.00000000000000E+00   3.00000000000000E+02   2.99999999999966E+02
      3.00000000000000E+02
      4.30098359747479E-01
      6.45147539621218E+00   6.45147539621218E+00   0.00000000000000E+00   0.00000000000000E+00  -1.07414082378402E-25
      1.07414082378402E-25   0.00000000000000E+00   1.91604568215101E-07   0.00000000000000E+00   0.00000000000000E+00
      0.00000000000000E+00   0.00000000000000E+00  -1.16426436739586E-13  -5.67878386203574E-18  -1.16432115523448E-13
     -1.59331633416310E-07   3.00000000000000E+02   0.00000000000000E+00   0.00000000000000E+00   0.00000000000000E+00
      0.00000000000000E+00   0.00000000000000E+00   1.16426472115800E-13   5.64340764504035E-18   1.16432115523445E-13
     -3.22729347987912E-08   3.00000000000000E+02   0.00000000000000E+00   3.00000000000000E+02   2.99999999999966E+02
      3.00000000000000E+02
      4.77574808883608E-01
      7.16362213325411E+00   7.16362213325411E+00   0.00000000000000E+00   0.00000000000000E+00  -2.36282533086639E-25
      2.36282533086639E-25   0.00000000000000E+00   2.11588690893489E-07   0.00000000000000E+00  -3.15194439053103E-16
      0.00000000000000E+00   0.00000000000000E+00   1.98222149688584E-12  -2.27974617978900E-16   1.98199352226786E-12
     -1.74156008304205E-07   3.00000000000000E+02   0.00000000000000E+00   0.00000000000000E+00  -6.22567807273805E-16
      0.00000000000000E+00   0.00000000000000E+00  -1.98222216936385E-12   2.28647095970990E-16  -1.98199352226788E-12
     -3.74326825892829E-08   3.00000000000000E+02   0.00000000000000E+00   3.00000000000000E+02   2.99999999999966E+02
      3.00000000000000E+02
      5.42353786149348E-01
      8.13530679224022E+00   8.13530679224022E+00   0.00000000000000E+00   0.00000000000000E+00  -1.96588128492957E-25
      1.96588128492957E-25   0.00000000000000E+00   2.39217514636843E-07   0.00000000000000E+00  -2.92233254751221E-16
      0.00000000000000E+00   0.00000000000000E+00   8.75785834314732E-13  -3.16433085448302E-16   8.75469401229284E-13
     -1.94740531956618E-07   3.00000000000000E+02   5.48149351379564E-11   0.00000000000000E+00  -6.78081556661898E-16
      0.00000000000000E+00   0.00000000000000E+00  -8.75782594861303E-13   3.13193631959119E-16  -8.75469401229343E-13
     -4.44769826802265E-08   3.00000000000000E+02   0.00000000000000E+00   3.00000000000000E+02   2.99999999999966E+02
      3.00000000000000E+02
      6.31316914927631E-01
      9.46975372391447E+00   9.46975372391447E+00   0.00000000000000E+00   0.00000000000000E+00  -2.13700178659064E-25
      2.13700178659064E-25   0.00000000000000E+00   2.77339773703790E-07   0.00000000000000E+00  -4.55048925255473E-16
      0.00000000000000E+00   0.00000000000000E+00  -1.85229645266277E-12   7.28977833213565E-18  -1.85228916288444E-12
     -2.23182752716917E-07   3.00000000000000E+02   0.00000000000000E+00   0.00000000000000E+00  -4.81603574534405E-16
      0.00000000000000E+00   0.00000000000000E+00   1.85229645254011E-12  -7.28965566929924E-18   1.85228916288444E-12
     -5.41570209868754E-08   3.00000000000000E+02   0.00000000000000E+00   3.00000000000000E+02   2.99999999999966E+02
      3.00000000000000E+02
      7.31316914927631E-01
      1.09697537239145E+01   1.09697537239145E+01   0.00000000000000E+00   0.00000000000000E+00   1.50139315174416E-24
     -1.50139315174416E-24   0.00000000000000E+00   3.20284430198076E-07   0.00000000000000E+00  -2.38483209680908E-16
      0.00000000000000E+00   0.00000000000000E+00   6.81130661503634E-12   7.35582040833266E-13   7.54688865586960E-12
     -2.55240487865691E-07   3.00000000000000E+02  -7.23907257208608E-11   0.00000000000000E+00  -6.32740483863246E-16
      0.00000000000000E+00   0.00000000000000E+00  -6.81130653297170E-12  -7.35582122897843E-13  -7.54688865586954E-12
     -6.50439423323869E-08   3.00000000000000E+02   9.11651764389144E-11   2.99999999999991E+02   2.99999999999966E+02
      3.00000000000002E+02
      8.31316914927631E-01
      1.24697537239145E+01   1.24697537239145E+01   0.00000000000000E+00   0.00000000000000E+00   1.57709945386513E-25
     -1.57709945386513E-25   0.00000000000000E+00   3.63277056279665E-07   0.00000000000000E+00  -3.24587650812964E-16
      0.00000000000000E+00   0.00000000000000E+00  -7.69644510648932E-13   4.54361807216755E-15  -7.65100892576764E-13
     -2.87341542101084E-07   3.00000000000000E+02   2.31240046619427E-11   0.00000000000000E+00  -5.76064142864930E-16
      0.00000000000000E+00   0.00000000000000E+00   7.69644513137501E-13  -4.54362056075031E-15   7.65100892576750E-13
     -7.59355141785826E-08   3.00000000000000E+02   0.00000000000000E+00   3.00000000000000E+02   2.99999999999966E+02
      3.00000000000000E+02
      9.31316914927631E-01
      1.39697537239145E+01   1.39697537239145E+01   0.00000000000000E+00   0.00000000000000E+00  -8.21310626462127E-26
      8.21310626462127E-26   0.00000000000000E+00   4.06298042844793E-07   0.00000000000000E+00  -4.10170246847250E-16
      0.00000000000000E+00   0.00000000000000E+00   3.22081207340978E-12   1.13336502581281E-15   3.22194543843560E-12
     -3.19467433816488E-07   3.00000000000000E+02   0.00000000000000E+00   0.00000000000000E+00  -5.51359071147716E-16
      0.00000000000000E+00   0.00000000000000E+00  -3.22081207329864E-12  -1.13336513705968E-15  -3.22194543843570E-12
     -8.68306090283041E-08   3.00000000000000E+02   0.00000000000000E+00   3.00000000000000E+02   2.99999999999966E+02
      3.00000000000000E+02
      1.00000000000000E+00
      1.50000000000000E+01   1.50000000000000E+01   0.00000000000000E+00   0.00000000000000E+00  -2.35195516959249E-25
      2.35195516959249E-25   0.00000000000000E+00   4.35857536629048E-07   0.00000000000000E+00  -3.58507582168016E-16
      0.00000000000000E+00   0.00000000000000E+00  -1.76348459421138E-12   4.51588758961968E-17  -1.76343943533549E-12
     -3.41542206631767E-07   3.00000000000000E+02   0.00000000000000E+00   0.00000000000000E+00  -8.10035704422079E-16
      0.00000000000000E+00   0.00000000000000E+00   1.76348459413422E-12  -4.51587987123353E-17   1.76343943533550E-12
     -9.43153299972777E-08   3.00000000000000E+02   0.00000000000000E+00   3.00000000000000E+02   2.99999999999966E+02
      3.00000000000000E+02
}
