DF-ISE text

Info {
  version   = 1.0
  type      = xyplot
  datasets  = [
    "time"
    "Gate OuterVoltage" "Gate InnerVoltage" "Gate QuasiFermiPotential" "Gate DisplacementCurrent" "Gate eCurrent"
    "Gate hCurrent" "Gate TotalCurrent" "Gate Charge" "Emitter OuterVoltage" "Emitter InnerVoltage"
    "Emitter QuasiFermiPotential" "Emitter DisplacementCurrent" "Emitter eCurrent" "Emitter hCurrent" "Emitter TotalCurrent"
    "Emitter Charge" "Collector OuterVoltage" "Collector InnerVoltage" "Collector QuasiFermiPotential" "Collector DisplacementCurrent"
    "Collector eCurrent" "Collector hCurrent" "Collector TotalCurrent" "Collector Charge" ]
  functions = [
    Time
    OuterVoltage InnerVoltage QuasiFermiPotential DisplacementCurrent eCurrent
    hCurrent TotalCurrent Charge OuterVoltage InnerVoltage
    QuasiFermiPotential DisplacementCurrent eCurrent hCurrent TotalCurrent
    Charge OuterVoltage InnerVoltage QuasiFermiPotential DisplacementCurrent
    eCurrent hCurrent TotalCurrent Charge ]
}

Data {
      0.00000000000000E+00
     -3.23078867878904E-17   0.00000000000000E+00   0.00000000000000E+00   0.00000000000000E+00  -9.90173405183172E-26
      9.90173405183172E-26   0.00000000000000E+00   2.03271036440394E-08  -3.92379002062922E-17   0.00000000000000E+00
      0.00000000000000E+00   0.00000000000000E+00   1.47704830303039E-17   3.37823940715039E-16   3.52594423745343E-16
     -3.40972168015705E-08   1.35116106657830E-17  -8.98102018896385E-17   0.00000000000000E+00   0.00000000000000E+00
     -1.47705346302556E-17  -3.37823889115094E-16  -3.52594423745350E-16   1.37701131575309E-08
      0.00000000000000E+00
     -2.05141992531826E-20   0.00000000000000E+00   0.00000000000000E+00   0.00000000000000E+00  -7.27613360371863E-26
      7.27613360371863E-26   0.00000000000000E+00   2.03271036473717E-08  -4.16291320120175E-24   0.00000000000000E+00
      0.00000000000000E+00   0.00000000000000E+00  -2.58937390647624E-17  -4.80822151865433E-17  -7.39759542513057E-17
     -3.40972168015527E-08   1.29982971373961E-19   0.00000000000000E+00   0.00000000000000E+00   0.00000000000000E+00
      2.58936123145289E-17   4.80823419367764E-17   7.39759542513053E-17   1.37701131541808E-08
      0.00000000000000E+00
     -4.31142783693001E-22   0.00000000000000E+00   0.00000000000000E+00   0.00000000000000E+00  -4.99174993605854E-26
      4.99174993605854E-26   0.00000000000000E+00   2.03271036473717E-08  -1.11070609825469E-25   0.00000000000000E+00
      0.00000000000000E+00   0.00000000000000E+00   8.23725349186047E-18   1.76948304325604E-17   2.59320839244208E-17
     -3.40972168015527E-08  -1.04796892665979E-22   0.00000000000000E+00   0.00000000000000E+00   0.00000000000000E+00
     -8.23735769882927E-18  -1.76947262255913E-17  -2.59320839244206E-17   1.37701131541808E-08
      1.00000000000000E-04
      8.74608758024313E-13   8.74637432427277E-13   0.00000000000000E+00   0.00000000000000E+00  -9.67449499588808E-26
      9.67449499588808E-26   0.00000000000000E+00   2.02969030042172E-08   8.74608755549641E-13   8.74729277164485E-13
      0.00000000000000E+00   0.00000000000000E+00  -6.76194342951857E-13  -8.73899849288164E-10  -8.74576043631116E-10
     -3.41953882350184E-08   4.99999824978313E-03   4.99999824978305E-03   0.00000000000000E+00   0.00000000000000E+00
      8.74303930127124E-10   2.72113503990229E-13   8.74576043631114E-10   1.38984852308010E-08
      2.48333333333333E-04
      2.03694029730069E-12   2.03693258178853E-12   0.00000000000000E+00   0.00000000000000E+00  -5.52186748045351E-26
      5.52186748045351E-26   0.00000000000000E+00   2.02523365015957E-08   2.03694034023751E-12   2.03711627126294E-12
      0.00000000000000E+00   0.00000000000000E+00  -3.71331625178801E-13  -2.03540255826560E-09  -2.03577388989078E-09
     -3.43402806347144E-08   1.24166625903041E-02   1.24166625903039E-02   0.00000000000000E+00   0.00000000000000E+00
      2.03518480075944E-09   5.89089131327165E-13   2.03577388989077E-09   1.40879441331190E-08
      4.69597222222222E-04
      3.52121911272659E-12   3.52123537979937E-12   0.00000000000000E+00   0.00000000000000E+00  -8.20403080941979E-26
      8.20403080941979E-26   0.00000000000000E+00   2.01863771829518E-08   3.52121902808645E-12   3.52160275874820E-12
      0.00000000000000E+00   0.00000000000000E+00   1.53846025741371E-11  -3.51879423941157E-09  -3.50340963683743E-09
     -3.45547898223185E-08   2.34798540639797E-02   2.34798540639793E-02   0.00000000000000E+00   0.00000000000000E+00
      3.50250836146514E-09   9.01275372280353E-13   3.50340963683742E-09   1.43684126393669E-08
      7.99649189814815E-04
      5.31442339420988E-12   5.31441202903912E-12   0.00000000000000E+00   0.00000000000000E+00  -5.73407515623622E-26
      5.73407515623622E-26   0.00000000000000E+00   2.00891658355969E-08   5.31442339420341E-12   5.31496309746237E-12
      0.00000000000000E+00   0.00000000000000E+00  -3.16510888907328E-12  -5.31125831608769E-09  -5.31442342497676E-09
     -3.48711466799121E-08   3.99824488539014E-02   3.99824488539007E-02   0.00000000000000E+00   0.00000000000000E+00
      5.31320512811590E-09   1.21829686084544E-12   5.31442342497675E-09   1.47819808443150E-08
      1.28922627507716E-03
      7.36618288439896E-12   7.36622345825527E-12   0.00000000000000E+00   0.00000000000000E+00  -5.55740120142184E-26
      5.55740120142184E-26   0.00000000000000E+00   1.99476559066586E-08   7.36618288436487E-12   7.36695821615293E-12
      0.00000000000000E+00   0.00000000000000E+00  -3.68457230889366E-12  -7.36249832789016E-09  -7.36618290019905E-09
     -3.53324126945404E-08   6.44612990086054E-02   6.44612990086045E-02   0.00000000000000E+00   0.00000000000000E+00
      7.36476224580400E-09   1.42065439502061E-12   7.36618290019902E-09   1.53847567878817E-08
      2.01543228488297E-03
      9.70913202960157E-12   9.70909085968207E-12   0.00000000000000E+00   0.00000000000000E+00  -6.92994551181366E-26
      6.92994551181366E-26   0.00000000000000E+00   1.97440234933100E-08   9.70913204295856E-12   9.71010115179135E-12
      0.00000000000000E+00   0.00000000000000E+00  -3.93182283495527E-12  -9.70520203586176E-09  -9.70913385869671E-09
     -3.59990587337324E-08   1.00771594805737E-01   1.00771594805737E-01   0.00000000000000E+00   0.00000000000000E+00
      9.70761579019867E-09   1.51806849799121E-12   9.70913385869666E-09   1.62550352404224E-08
      3.09263786609493E-03
      1.25626480501009E-11   1.25626149999827E-11   0.00000000000000E+00   0.00000000000000E+00  -7.58977912838900E-26
      7.58977912838900E-26   0.00000000000000E+00   1.94572713059364E-08   1.25626481534999E-11   1.25639008263036E-11
      0.00000000000000E+00   0.00000000000000E+00  -4.28251420344257E-12  -1.25586397584555E-08  -1.25629222726590E-08
     -3.69497592968190E-08   1.54631868148533E-01   1.54631868148532E-01   0.00000000000000E+00   0.00000000000000E+00
      1.25613860147752E-08   1.53625788379211E-12   1.25629222726589E-08   1.74924879908823E-08
      4.69049281155933E-03
      1.61614474929898E-11   1.61614591827224E-11   0.00000000000000E+00   0.00000000000000E+00  -8.74603117854415E-26
      8.74603117854415E-26   0.00000000000000E+00   1.90710952274893E-08   1.61614474930355E-11   1.61630205432550E-11
      0.00000000000000E+00   0.00000000000000E+00  -4.00631891036983E-12  -1.61574411665171E-08  -1.61614474854275E-08
     -3.82795634124145E-08   2.34524608208178E-01   2.34524608208177E-01   0.00000000000000E+00   0.00000000000000E+00
      1.61598948673688E-08   1.55261805876737E-12   1.61614474854275E-08   1.92084681849253E-08
      7.04732885611932E-03
      2.06262457774100E-11   2.06262155478547E-11   0.00000000000000E+00   0.00000000000000E+00  -6.55370135017657E-26
      6.55370135017657E-26   0.00000000000000E+00   1.86056951415426E-08   2.06262457774686E-11   2.06283279768105E-11
      0.00000000000000E+00   0.00000000000000E+00  -4.00715798673002E-12  -2.06222405175551E-08  -2.06262476755419E-08
     -4.00815292386930E-08   3.52366401483016E-01   3.52366401483014E-01   0.00000000000000E+00   0.00000000000000E+00
      2.06247003354808E-08   1.54734006094258E-12   2.06262476755418E-08   2.14758340971505E-08
      1.02486978166466E-02
      2.41863432042632E-11   2.41863012514929E-11   0.00000000000000E+00   0.00000000000000E+00  -7.09067418589371E-26
      7.09067418589371E-26   0.00000000000000E+00   1.81947453510817E-08   2.41863432043830E-11   2.41887810593975E-11
      0.00000000000000E+00   0.00000000000000E+00  -4.00795461749230E-12  -2.41823352473102E-08  -2.41863432019277E-08
     -4.22773473732711E-08   5.12434842357177E-01   5.12434842357175E-01   0.00000000000000E+00   0.00000000000000E+00
      2.41847846447535E-08   1.55855717397488E-12   2.41863432019275E-08   2.40826020221898E-08
      1.09828784315942E-02
      2.47305607246500E-11   2.47304813194475E-11   0.00000000000000E+00   0.00000000000000E+00  -7.94713394532512E-26
      7.94713394532512E-26   0.00000000000000E+00   1.81303818785629E-08   2.47305607573690E-11   2.47330529720893E-11
      0.00000000000000E+00   0.00000000000000E+00  -4.00812279865111E-12  -2.47265526057424E-08  -2.47305607285410E-08
     -4.27486777944981E-08   5.49143872008780E-01   5.49143872008776E-01   0.00000000000000E+00   0.00000000000000E+00
      2.47290016012861E-08   1.55912725491874E-12   2.47305607285410E-08   2.46182959159357E-08
      1.20719130104332E-02
      2.55766128242087E-11   2.55765550386032E-11   0.00000000000000E+00   0.00000000000000E+00  -7.65478788997850E-26
      7.65478788997850E-26   0.00000000000000E+00   1.80487000620220E-08   2.55766128203832E-11   2.55791266912450E-11
      0.00000000000000E+00   0.00000000000000E+00  -4.00836142636163E-12  -2.55726044592556E-08  -2.55766128206820E-08
     -4.34303038633638E-08   6.03595599247733E-01   6.03595599247733E-01   0.00000000000000E+00   0.00000000000000E+00
      2.55750528139369E-08   1.56000674483733E-12   2.55766128206818E-08   2.53816038013420E-08
      1.36873143023776E-02
      2.72588232336511E-11   2.72587832452963E-11   0.00000000000000E+00   0.00000000000000E+00  -8.27409777584307E-26
      8.27409777584307E-26   0.00000000000000E+00   1.79495978909301E-08   2.72588232334124E-11   2.72615385874125E-11
      0.00000000000000E+00   0.00000000000000E+00  -4.00869275043967E-12  -2.72548145415033E-08  -2.72588232342538E-08
     -4.44106939968731E-08   6.84365660464381E-01   6.84365660464378E-01   0.00000000000000E+00   0.00000000000000E+00
      2.72572619399944E-08   1.56129425933900E-12   2.72588232342537E-08   2.64610961059430E-08
      1.60700312079956E-02
      3.10671261992908E-11   3.10671252736064E-11   0.00000000000000E+00   0.00000000000000E+00  -7.52732965601942E-26
      7.52732965601942E-26   0.00000000000000E+00   1.78351384306653E-08   3.10671261994826E-11   3.10702479946714E-11
      0.00000000000000E+00   0.00000000000000E+00  -4.13216207908699E-12  -3.10631169564853E-08  -3.10672491185643E-08
     -4.58117025885383E-08   8.03501498104852E-01   8.03501498104852E-01   0.00000000000000E+00   0.00000000000000E+00
      3.10656857665518E-08   1.56335201274923E-12   3.10672491185645E-08   2.79765641578731E-08
      1.95845386437822E-02
      3.73647124172993E-11   3.73647352144521E-11   0.00000000000000E+00   0.00000000000000E+00  -1.03761077677275E-25
      1.03761077677275E-25   0.00000000000000E+00   1.77076812648223E-08   3.73647124311050E-11   3.73685008486776E-11
      0.00000000000000E+00   0.00000000000000E+00  -5.48838683488920E-12  -3.73608107286760E-08  -3.73662991155108E-08
     -4.78154650429955E-08   9.79226857263872E-01   9.79226857263868E-01   0.00000000000000E+00   0.00000000000000E+00
      3.73774617335874E-08  -1.11626180767921E-11   3.73662991155107E-08   3.01077837781732E-08
      2.03249282102546E-02
      3.89392642544083E-11   3.89392295444007E-11   0.00000000000000E+00   0.00000000000000E+00  -8.17912769902509E-26
      8.17912769902509E-26   0.00000000000000E+00   1.76853195510641E-08   3.89392642541893E-11   3.89431788681006E-11
      0.00000000000000E+00   0.00000000000000E+00  -4.12186410142171E-12  -3.89352342237230E-08  -3.89393560878245E-08
     -4.82295163350448E-08   1.01624633243098E+00   1.01624633243098E+00   0.00000000000000E+00   0.00000000000000E+00
      3.89378090558831E-08   1.54703194110280E-12   3.89393560878242E-08   3.05441967839811E-08
      2.07395463674791E-02
      3.98837965794293E-11   3.98837608218429E-11   0.00000000000000E+00   0.00000000000000E+00  -9.73718064366335E-26
      9.73718064366335E-26   0.00000000000000E+00   1.76734161668925E-08   3.98837970109265E-11   3.98878019902800E-11
      0.00000000000000E+00   0.00000000000000E+00  -6.82378219062936E-12  -3.98951498821158E-08  -3.99019736643064E-08
     -4.84601503756496E-08   1.03697723839901E+00   1.03697723839900E+00   0.00000000000000E+00   0.00000000000000E+00
      3.98850432526293E-08   1.69304116773008E-11   3.99019736643066E-08   3.07867342087574E-08
      2.09592939908081E-02
      4.04043722783892E-11   4.04043367923352E-11   0.00000000000000E+00   0.00000000000000E+00  -5.50951279769011E-26
      5.50951279769011E-26   0.00000000000000E+00   1.76672861905465E-08   4.04043722775494E-11   4.04083779607723E-11
      0.00000000000000E+00   0.00000000000000E+00  -4.36063128183280E-12  -4.03629981183053E-08  -4.03673587495872E-08
     -4.85820211559797E-08   1.04796461852210E+00   1.04796461852209E+00   0.00000000000000E+00   0.00000000000000E+00
      4.04031548402192E-08  -3.57960906321260E-11   4.03673587495871E-08   3.09147349654334E-08
      2.12724343540520E-02
      4.11685598048987E-11   4.11685768506390E-11   0.00000000000000E+00   0.00000000000000E+00  -1.11004478694292E-25
      1.11004478694292E-25   0.00000000000000E+00   1.76587636501286E-08   4.11685598050269E-11   4.11727098638133E-11
      0.00000000000000E+00   0.00000000000000E+00  -4.35894694020964E-12  -4.11516520459929E-08  -4.11560109929331E-08
     -4.87552443036256E-08   1.06362163515279E+00   1.06362163515278E+00   0.00000000000000E+00   0.00000000000000E+00
      4.11673406325202E-08  -1.13296395870578E-11   4.11560109929331E-08   3.10964806534974E-08
      2.17212688747015E-02
      4.22293181624021E-11   4.22293835653859E-11   0.00000000000000E+00   0.00000000000000E+00  -7.88889536672334E-26
      7.88889536672334E-26   0.00000000000000E+00   1.76469789636458E-08   4.22293177178346E-11   4.22336084232975E-11
      0.00000000000000E+00   0.00000000000000E+00  -3.39076909031981E-12  -4.22267528286825E-08  -4.22301435977728E-08
     -4.90026114813196E-08   1.08606335905925E+00   1.08606335905925E+00   0.00000000000000E+00   0.00000000000000E+00
      4.23179406654196E-08  -8.77970676469238E-11   4.22301435977727E-08   3.13556325176746E-08
      2.18253984834921E-02
      4.25926416319304E-11   4.25926295010417E-11   0.00000000000000E+00   0.00000000000000E+00  -8.71470896205981E-26
      8.71470896205981E-26   0.00000000000000E+00   1.76443163706321E-08   4.25926416308556E-11   4.25968543589532E-11
      0.00000000000000E+00   0.00000000000000E+00  -4.10227246876943E-12  -4.25891796834846E-08  -4.25932819559534E-08
     -4.90598441262377E-08   1.09126983877110E+00   1.09126983877110E+00   0.00000000000000E+00   0.00000000000000E+00
      4.25911651369254E-08   2.11681902799012E-12   4.25932819559534E-08   3.14155277556062E-08
      2.18484458369045E-02
      4.26532487764451E-11   4.26532470275987E-11   0.00000000000000E+00   0.00000000000000E+00  -8.04602906279608E-26
      8.04602906279608E-26   0.00000000000000E+00   1.76437306379534E-08   4.26532487560441E-11   4.26575637302474E-11
      0.00000000000000E+00   0.00000000000000E+00  -1.30049618535058E-11  -4.26492692924930E-08  -4.26622742543465E-08
     -4.90725035926783E-08   1.09242220632027E+00   1.09242220632027E+00   0.00000000000000E+00   0.00000000000000E+00
      4.26606685904824E-08   1.60566386415818E-12   4.26622742543465E-08   3.14287729547254E-08
      2.18533318758279E-02
      4.26659705507199E-11   4.26659216013333E-11   0.00000000000000E+00   0.00000000000000E+00  -5.55396682651047E-26
      5.55396682651047E-26   0.00000000000000E+00   1.76436066291143E-08   4.26659705508850E-11   4.26702383039821E-11
      0.00000000000000E+00   0.00000000000000E+00  -4.00965913328341E-12  -4.26619606330670E-08  -4.26659702922002E-08
     -4.90751870252749E-08   1.09266650824095E+00   1.09266650824095E+00   0.00000000000000E+00   0.00000000000000E+00
      4.26644014083304E-08   1.56888386962340E-12   4.26659702922000E-08   3.14315803961615E-08
      2.18604980662489E-02
      4.26848288514927E-11   4.26848416171981E-11   0.00000000000000E+00   0.00000000000000E+00  -6.53865113431115E-26
      6.53865113431115E-26   0.00000000000000E+00   1.76434248546492E-08   4.26848288519461E-11   4.26890664751096E-11
      0.00000000000000E+00   0.00000000000000E+00  -4.00994398498547E-12  -4.26808271030270E-08  -4.26848370470119E-08
     -4.90791224893706E-08   1.09302481772421E+00   1.09302481772421E+00   0.00000000000000E+00   0.00000000000000E+00
      4.26832599408533E-08   1.57710615881454E-12   4.26848370470121E-08   3.14356976347219E-08
      2.18708890423594E-02
      4.27122071613153E-11   4.27122113488859E-11   0.00000000000000E+00   0.00000000000000E+00  -5.53084209179581E-26
      5.53084209179581E-26   0.00000000000000E+00   1.76431615037812E-08   4.27122071617338E-11   4.27164362067974E-11
      0.00000000000000E+00   0.00000000000000E+00  -4.00971631691384E-12  -4.27082011391391E-08  -4.27122108554560E-08
     -4.90848284115882E-08   1.09354436647488E+00   1.09354436647488E+00   0.00000000000000E+00   0.00000000000000E+00
      4.27106380112022E-08   1.57284425351921E-12   4.27122108554558E-08   3.14416669078079E-08
      2.18863889150575E-02
      4.27530800171807E-11   4.27530822569433E-11   0.00000000000000E+00   0.00000000000000E+00  -7.36945220628228E-26
      7.36945220628228E-26   0.00000000000000E+00   1.76427691601596E-08   4.27530799998338E-11   4.27573071148548E-11
      0.00000000000000E+00   0.00000000000000E+00  -4.00998113807082E-12  -4.27490724334222E-08  -4.27530824145603E-08
     -4.90933386437049E-08   1.09431936002788E+00   1.09431936002787E+00   0.00000000000000E+00   0.00000000000000E+00
      4.27515110954231E-08   1.57131913733592E-12   4.27530824145605E-08   3.14505694835458E-08
      2.19096387241046E-02
      4.28144682120150E-11   4.28145263861351E-11   0.00000000000000E+00   0.00000000000000E+00  -6.44883990844050E-26
      6.44883990844050E-26   0.00000000000000E+00   1.76421817388363E-08   4.28144684141989E-11   4.28187512440466E-11
      0.00000000000000E+00   0.00000000000000E+00  -4.01003870915013E-12  -4.28104578464711E-08  -4.28144678851802E-08
     -4.91061015167723E-08   1.09548185035723E+00   1.09548185035722E+00   0.00000000000000E+00   0.00000000000000E+00
      4.28128995391627E-08   1.56834601758885E-12   4.28144678851802E-08   3.14639197779365E-08
      2.19445134376754E-02
      4.29067250931419E-11   4.29067385022914E-11   0.00000000000000E+00   0.00000000000000E+00  -7.12243769317262E-26
      7.12243769317262E-26   0.00000000000000E+00   1.76413030629248E-08   4.29067252844700E-11   4.29110552049402E-11
      0.00000000000000E+00   0.00000000000000E+00  -4.01005647357347E-12  -4.29026995048323E-08  -4.29067095613059E-08
     -4.91252402525266E-08   1.09722558585090E+00   1.09722558585090E+00   0.00000000000000E+00   0.00000000000000E+00
      4.29051563850100E-08   1.55317629584969E-12   4.29067095613058E-08   3.14839371896021E-08
      2.19968255080315E-02
      4.30454828466180E-11   4.30455159002120E-11   0.00000000000000E+00   0.00000000000000E+00  -7.00493012795015E-26
      7.00493012795015E-26   0.00000000000000E+00   1.76399905554738E-08   4.30454824082654E-11   4.30497407581236E-11
      0.00000000000000E+00   0.00000000000000E+00  -4.01007040446975E-12  -4.30413802572937E-08  -4.30453903276982E-08
     -4.91539357987570E-08   1.09984118909067E+00   1.09984118909067E+00   0.00000000000000E+00   0.00000000000000E+00
      4.30439134601289E-08   1.47686756920716E-12   4.30453903276981E-08   3.15139452432838E-08
      2.20752936135657E-02
      4.32543907223138E-11   4.32543708326219E-11   0.00000000000000E+00   0.00000000000000E+00  -7.95023387004492E-26
      7.95023387004492E-26   0.00000000000000E+00   1.76380341151558E-08   4.32543907224708E-11   4.32586875352707E-11
      0.00000000000000E+00   0.00000000000000E+00  -4.01008404588163E-12  -4.32503839529002E-08  -4.32543940369461E-08
     -4.91969508086743E-08   1.10376459394878E+00   1.10376459394878E+00   0.00000000000000E+00   0.00000000000000E+00
      4.32528216909373E-08   1.57234600832297E-12   4.32543940369456E-08   3.15589166935185E-08
      2.21923418709875E-02
      4.35675154561564E-11   4.35674695417624E-11   0.00000000000000E+00   0.00000000000000E+00  -6.68951385642991E-26
      6.68951385642991E-26   0.00000000000000E+00   1.76351429866683E-08   4.35675154564701E-11   4.35718780891484E-11
      0.00000000000000E+00   0.00000000000000E+00  -4.01010114178324E-12  -4.35635087075864E-08  -4.35675188087282E-08
     -4.92610515566264E-08   1.10961700619245E+00   1.10961700619245E+00   0.00000000000000E+00   0.00000000000000E+00
      4.35659462989939E-08   1.57250973390745E-12   4.35675188087278E-08   3.16259085699591E-08
      2.23669388549750E-02
      4.40371618600749E-11   4.40371635278417E-11   0.00000000000000E+00   0.00000000000000E+00  -7.87309226806881E-26
      7.87309226806881E-26   0.00000000000000E+00   1.76308900836350E-08   4.40371618617787E-11   4.40415720752276E-11
      0.00000000000000E+00   0.00000000000000E+00  -4.01012655434451E-12  -4.40331551401218E-08  -4.40371652666762E-08
     -4.93565270593342E-08   1.11834685445079E+00   1.11834685445078E+00   0.00000000000000E+00   0.00000000000000E+00
      4.40355925157183E-08   1.57275095767480E-12   4.40371652666760E-08   3.17256369756994E-08
      2.26273793560897E-02
      4.47406578933507E-11   4.47406942148513E-11   0.00000000000000E+00   0.00000000000000E+00  -6.38805954384232E-26
      6.38805954384232E-26   0.00000000000000E+00   1.76246757281751E-08   4.47406578942406E-11   4.47451027622373E-11
      0.00000000000000E+00   0.00000000000000E+00  -4.01016426739139E-12  -4.47366511648826E-08  -4.47406613291500E-08
     -4.94986280947351E-08   1.13136887809693E+00   1.13136887809692E+00   0.00000000000000E+00   0.00000000000000E+00
      4.47390882657025E-08   1.57306344752405E-12   4.47406613291500E-08   3.18739523665601E-08
      2.30158697702525E-02
      4.57866242735844E-11   4.57866220821707E-11   0.00000000000000E+00   0.00000000000000E+00  -7.03858654485388E-26
      7.03858654485388E-26   0.00000000000000E+00   1.76156821153932E-08   4.57866242484933E-11   4.57912143190310E-11
      0.00000000000000E+00   0.00000000000000E+00  -4.01022008202634E-12  -4.57826165031858E-08  -4.57866267232678E-08
     -4.97098850612114E-08   1.15079339670925E+00   1.15079339670925E+00   0.00000000000000E+00   0.00000000000000E+00
      4.57850541975178E-08   1.57252574996137E-12   4.57866267232677E-08   3.20942029458179E-08
      2.35953679713787E-02
      4.73048429445693E-11   4.73048155882111E-11   0.00000000000000E+00   0.00000000000000E+00  -7.84889623736264E-26
      7.84889623736264E-26   0.00000000000000E+00   1.76028375064391E-08   4.73048429939496E-11   4.73095915145459E-11
      0.00000000000000E+00   0.00000000000000E+00  -4.01030195868576E-12  -4.73008141259386E-08  -4.73048244278973E-08
     -5.00234092652335E-08   1.17976830372333E+00   1.17976830372333E+00   0.00000000000000E+00   0.00000000000000E+00
      4.73032723157840E-08   1.55211211316518E-12   4.73048244278972E-08   3.24205717587948E-08
      2.44597861213920E-02
      4.93743063008444E-11   4.93742612069711E-11   0.00000000000000E+00   0.00000000000000E+00  -7.76531348236876E-26
      7.76531348236876E-26   0.00000000000000E+00   1.75848120746022E-08   4.93743063009111E-11   4.93792208227803E-11
      0.00000000000000E+00   0.00000000000000E+00  -4.01042374625067E-12  -4.93702999394437E-08  -4.93743103631900E-08
     -5.04874426086074E-08   1.22298920707642E+00   1.22298920707642E+00   0.00000000000000E+00   0.00000000000000E+00
      4.93727347100024E-08   1.57565318751749E-12   4.93743103631899E-08   3.29026305340052E-08
      2.57420063772449E-02
      5.18281791880023E-11   5.18281688956818E-11   0.00000000000000E+00   0.00000000000000E+00  -6.54092693311071E-26
      6.54092693311071E-26   0.00000000000000E+00   1.75603009340077E-08   5.18281791905901E-11   5.18334040457026E-11
      0.00000000000000E+00   0.00000000000000E+00  -4.01060013622990E-12  -5.18241730403534E-08  -5.18281836404896E-08
     -5.11673512462826E-08   1.28710021494851E+00   1.28710021494850E+00   0.00000000000000E+00   0.00000000000000E+00
      5.18266063247197E-08   1.57731576980005E-12   5.18281836404895E-08   3.36070503122746E-08
      2.76439664234268E-02
      5.41579334583545E-11   5.41579024996879E-11   0.00000000000000E+00   0.00000000000000E+00  -7.29620886052767E-26
      7.29620886052767E-26   0.00000000000000E+00   1.75289359477864E-08   5.41579333489613E-11   5.41634131839203E-11
      0.00000000000000E+00   0.00000000000000E+00  -4.01085574383927E-12  -5.41539218211748E-08  -5.41579326769187E-08
     -5.21554385182102E-08   1.38219821257908E+00   1.38219821257907E+00   0.00000000000000E+00   0.00000000000000E+00
      5.41563587731501E-08   1.57390376850763E-12   5.41579326769186E-08   3.46265025704242E-08
      3.04652071585967E-02
      5.59546193384831E-11   5.59546610936787E-11   0.00000000000000E+00   0.00000000000000E+00  -6.44876062338205E-26
      6.44876062338205E-26   0.00000000000000E+00   1.74933299723460E-08   5.59546194153380E-11   5.59602636226484E-11
      0.00000000000000E+00   0.00000000000000E+00  -4.01122498224026E-12  -5.59506137957737E-08  -5.59546250207559E-08
     -5.35715434537994E-08   1.52326024571598E+00   1.52326024571597E+00   0.00000000000000E+00   0.00000000000000E+00
      5.59530425189486E-08   1.58250180702872E-12   5.59546250207557E-08   3.60782134814534E-08
      3.46265372429721E-02
      5.74963049682100E-11   5.74962750077071E-11   0.00000000000000E+00   0.00000000000000E+00  -8.05488781874233E-26
      8.05488781874233E-26   0.00000000000000E+00   1.74512904318399E-08   5.74963049684809E-11   5.75020612261511E-11
      0.00000000000000E+00   0.00000000000000E+00  -4.20413911845410E-12  -5.74923929522340E-08  -5.74965970913525E-08
     -5.55705961681138E-08   1.73132674680977E+00   1.73132674680977E+00   0.00000000000000E+00   0.00000000000000E+00
      5.74949174333867E-08   1.67965796551671E-12   5.74965970913522E-08   3.81193057362743E-08
      3.50060505466672E-02
      5.76389617916158E-11   5.76389098845904E-11   0.00000000000000E+00   0.00000000000000E+00  -7.07819292061438E-26
      7.07819292061438E-26   0.00000000000000E+00   1.74479057509974E-08   5.76389617922093E-11   5.76446961030344E-11
      0.00000000000000E+00   0.00000000000000E+00  -4.01111853385538E-12  -5.76341351964826E-08  -5.76381463150164E-08
     -5.57489085285796E-08   1.75030241170542E+00   1.75030241170541E+00   0.00000000000000E+00   0.00000000000000E+00
      5.76373859431140E-08   7.60371902307190E-13   5.76381463150163E-08   3.83010027775828E-08
      3.55658326696174E-02
      5.78571022281727E-11   5.78571329801954E-11   0.00000000000000E+00   0.00000000000000E+00  -7.33288640762694E-26
      7.33288640762694E-26   0.00000000000000E+00   1.74430927146392E-08   5.78571019504829E-11   5.78629191986395E-11
      0.00000000000000E+00   0.00000000000000E+00  -1.31184319693922E-11  -5.78530863870357E-08  -5.78662048190051E-08
     -5.60108758185342E-08   1.77829151741105E+00   1.77829151741105E+00   0.00000000000000E+00   0.00000000000000E+00
      5.78646271606597E-08   1.57765834535683E-12   5.78662048190050E-08   3.85677831038959E-08
      3.64008410030181E-02
      5.82111633901587E-11   5.82111025973933E-11   0.00000000000000E+00   0.00000000000000E+00  -5.62216021576933E-26
      5.62216021576933E-26   0.00000000000000E+00   1.74363415868118E-08   5.82111633901723E-11   5.82169806605745E-11
      0.00000000000000E+00   0.00000000000000E+00  -4.36717378106063E-12  -5.82073131303387E-08  -5.82116803041197E-08
     -5.63994048842028E-08   1.82004193336461E+00   1.82004193336461E+00   0.00000000000000E+00   0.00000000000000E+00
      5.82099375342501E-08   1.74276986951786E-12   5.82116803041196E-08   3.89630632973913E-08
      3.68851458363905E-02
      5.84421975652636E-11   5.84421839562074E-11   0.00000000000000E+00   0.00000000000000E+00  -5.58147374205512E-26
      5.58147374205512E-26   0.00000000000000E+00   1.74326635986027E-08   5.84421975655187E-11   5.84480620193887E-11
      0.00000000000000E+00   0.00000000000000E+00  -3.19313367669961E-12  -5.84434068710915E-08  -5.84466000047682E-08
     -5.66235837833619E-08   1.84425717456632E+00   1.84425717456632E+00   0.00000000000000E+00   0.00000000000000E+00
      5.84397978964102E-08   6.80210835806720E-12   5.84466000047683E-08   3.91909201847598E-08
      3.75914237183919E-02
      5.88277318866745E-11   5.88277481630046E-11   0.00000000000000E+00   0.00000000000000E+00  -1.01259552286487E-25
      1.01259552286487E-25   0.00000000000000E+00   1.74275822660624E-08   5.88277318865998E-11   5.88336262261859E-11
      0.00000000000000E+00   0.00000000000000E+00  -6.55974351278845E-12  -5.88246477194802E-08  -5.88312074629930E-08
     -5.69491147302881E-08   1.87957106788826E+00   1.87957106788825E+00   0.00000000000000E+00   0.00000000000000E+00
      5.88286981868790E-08   2.50927611395990E-12   5.88312074629930E-08   3.95215324642262E-08
      3.85978697002440E-02
      5.95063588094308E-11   5.95062970814938E-11   0.00000000000000E+00   0.00000000000000E+00  -5.11812166426455E-26