DF-ISE text

Info {
  version   = 1.0
  type      = xyplot
  datasets  = [
    "time"
    "Gate OuterVoltage" "Gate InnerVoltage" "Gate QuasiFermiPotential" "Gate DisplacementCurrent" "Gate eCurrent"
    "Gate hCurrent" "Gate TotalCurrent" "Gate Charge" "Emitter OuterVoltage" "Emitter InnerVoltage"
    "Emitter QuasiFermiPotential" "Emitter DisplacementCurrent" "Emitter eCurrent" "Emitter hCurrent" "Emitter TotalCurrent"
    "Emitter Charge" "Collector OuterVoltage" "Collector InnerVoltage" "Collector QuasiFermiPotential" "Collector DisplacementCurrent"
    "Collector eCurrent" "Collector hCurrent" "Collector TotalCurrent" "Collector Charge" ]
  functions = [
    Time
    OuterVoltage InnerVoltage QuasiFermiPotential DisplacementCurrent eCurrent
    hCurrent TotalCurrent Charge OuterVoltage InnerVoltage
    QuasiFermiPotential DisplacementCurrent eCurrent hCurrent TotalCurrent
    Charge OuterVoltage InnerVoltage QuasiFermiPotential DisplacementCurrent
    eCurrent hCurrent TotalCurrent Charge ]
}

Data {
      0.00000000000000E+00
      1.35116106657830E-17   0.00000000000000E+00   0.00000000000000E+00   0.00000000000000E+00  -9.90173405183172E-26
      9.90173405183172E-26   0.00000000000000E+00   2.03271036440394E-08   1.35116106657830E-17   0.00000000000000E+00
      0.00000000000000E+00   0.00000000000000E+00   1.28579359918160E-17   3.48630365935462E-16   3.61488301927278E-16
     -3.40972168015705E-08   0.00000000000000E+00  -8.98102018896385E-17   0.00000000000000E+00   0.00000000000000E+00
     -1.28579875723466E-17  -3.48630314354939E-16  -3.61488301927286E-16   1.37701131575309E-08
      0.00000000000000E+00
      1.29982971373961E-19   0.00000000000000E+00   0.00000000000000E+00   0.00000000000000E+00  -7.27613360371863E-26
      7.27613360371863E-26   0.00000000000000E+00   2.03271036473717E-08   1.29982971373961E-19   0.00000000000000E+00
      0.00000000000000E+00   0.00000000000000E+00  -2.23553813376691E-17  -6.17218004062525E-17  -8.40771817439217E-17
     -3.40972168015527E-08   0.00000000000000E+00   0.00000000000000E+00   0.00000000000000E+00   0.00000000000000E+00
      2.23552779959696E-17   6.17219037479496E-17   8.40771817439193E-17   1.37701131541808E-08
      0.00000000000000E+00
     -1.04796892665979E-22   0.00000000000000E+00   0.00000000000000E+00   0.00000000000000E+00  -4.97707262494304E-26
      4.97707262494304E-26   0.00000000000000E+00   2.03271036473717E-08  -1.04796892665979E-22   0.00000000000000E+00
      0.00000000000000E+00   0.00000000000000E+00   1.69625520217774E-17  -3.03288470888584E-17  -1.33662950670810E-17
     -3.40972168015527E-08   0.00000000000000E+00   0.00000000000000E+00   0.00000000000000E+00   0.00000000000000E+00
     -1.69626604629141E-17   3.03289555299939E-17   1.33662950670798E-17   1.37701131541808E-08
      1.00000000000000E-04
      4.99999824978313E-03   4.99999824978317E-03   0.00000000000000E+00   0.00000000000000E+00  -9.45225604328652E-26
      9.45225604328652E-26   0.00000000000000E+00   2.03271036367783E-08   4.99999824978313E-03   4.99999824978314E-03
      0.00000000000000E+00   0.00000000000000E+00  -3.12598486648617E-18  -3.08567721493158E-16  -3.11693706359644E-16
     -3.40972168359860E-08   5.00000000000000E-03   4.99999999999997E-03   0.00000000000000E+00   0.00000000000000E+00
      3.23015118654515E-16  -1.13214122948690E-17   3.11693706359646E-16   1.37701131992075E-08
      2.48333333333333E-04
      1.24166625903041E-02   1.24166625903041E-02   0.00000000000000E+00   0.00000000000000E+00  -5.41292028571187E-26
      5.41292028571187E-26   0.00000000000000E+00   2.03271036226990E-08   1.24166625903041E-02   1.24166625903041E-02
      0.00000000000000E+00   0.00000000000000E+00   3.21877254480594E-17  -7.87036817664213E-16  -7.54849092216154E-16
     -3.40972168817500E-08   1.24166666666667E-02   1.24166666666667E-02   0.00000000000000E+00   0.00000000000000E+00
      7.12853789069992E-16   4.19953031461580E-17   7.54849092216150E-16   1.37701132590508E-08
      4.69597222222222E-04
      2.34798540639797E-02   2.34798540639797E-02   0.00000000000000E+00   0.00000000000000E+00  -8.38321883668171E-26
      8.38321883668171E-26   0.00000000000000E+00   2.03271036047181E-08   2.34798540639797E-02   2.34798540639797E-02
      0.00000000000000E+00   0.00000000000000E+00   2.35115088364237E-18  -1.28096424323145E-15  -1.27861309234781E-15
     -3.40972169401964E-08   2.34798611111111E-02   2.34798611111111E-02   0.00000000000000E+00   0.00000000000000E+00
      1.28566131475219E-15  -7.04822240437895E-18   1.27861309234781E-15   1.37701133354781E-08
      7.99649189814815E-04
      3.99824488539014E-02   3.99824488539011E-02   0.00000000000000E+00   0.00000000000000E+00  -7.15667528072479E-26
      7.15667528072479E-26   0.00000000000000E+00   2.03271035829910E-08   3.99824488539014E-02   3.99824488539014E-02
      0.00000000000000E+00   0.00000000000000E+00  -3.00925781422296E-17  -1.95170164499540E-15  -1.98179422313763E-15
     -3.40972170108192E-08   3.99824594907407E-02   3.99824594907408E-02   0.00000000000000E+00   0.00000000000000E+00
      1.97420015335710E-15   7.59406978055395E-18   1.98179422313765E-15   1.37701134278283E-08
      1.28922627507716E-03
      6.44612990086054E-02   6.44612990086051E-02   0.00000000000000E+00   0.00000000000000E+00  -6.69965492572651E-26
      6.69965492572651E-26   0.00000000000000E+00   2.03271035581244E-08   6.44612990086054E-02   6.44612990086055E-02
      0.00000000000000E+00   0.00000000000000E+00   2.50643245403349E-18  -2.66826971089135E-15  -2.66576327843732E-15
     -3.40972170916473E-08   6.44613137538580E-02   6.44613137538579E-02   0.00000000000000E+00   0.00000000000000E+00
      2.69250059693791E-15  -2.67373185005827E-17   2.66576327843732E-15   1.37701135335229E-08
      2.01543228488297E-03
      1.00771594805737E-01   1.00771594805737E-01   0.00000000000000E+00   0.00000000000000E+00  -7.05061998132226E-26
      7.05061998132226E-26   0.00000000000000E+00   2.03271035297185E-08   1.00771594805737E-01   1.00771594805737E-01
      0.00000000000000E+00   0.00000000000000E+00  -2.73611618072671E-17  -3.51778080451893E-15  -3.54514196632620E-15
     -3.40972171839792E-08   1.00771614244149E-01   1.00771614244149E-01   0.00000000000000E+00   0.00000000000000E+00
      3.58014214226066E-15  -3.50001759344487E-17   3.54514196632621E-15   1.37701136542612E-08
      3.09263786609493E-03
      1.54631868148533E-01   1.54631868148532E-01   0.00000000000000E+00   0.00000000000000E+00  -6.44661169775213E-26
      6.44661169775213E-26   0.00000000000000E+00   2.03271034951109E-08   1.54631868148533E-01   1.54631868148532E-01
      0.00000000000000E+00   0.00000000000000E+00  -2.40452396499820E-17  -4.57531783225356E-15  -4.59936307190354E-15
     -3.40972172964703E-08   1.54631893304746E-01   1.54631893304747E-01   0.00000000000000E+00   0.00000000000000E+00
      4.62187533948032E-15  -2.25122675767349E-17   4.59936307190359E-15   1.37701138013597E-08
      4.69049281155933E-03
      2.34524608208178E-01   2.34524608208179E-01   0.00000000000000E+00   0.00000000000000E+00  -7.94165786351942E-26
      7.94165786351942E-26   0.00000000000000E+00   2.03271034514499E-08   2.34524608208178E-01   2.34524608208179E-01
      0.00000000000000E+00   0.00000000000000E+00  -2.85629510066543E-17  -5.93598598508523E-15  -5.96454893609189E-15
     -3.40972174383886E-08   2.34524640577967E-01   2.34524640577967E-01   0.00000000000000E+00   0.00000000000000E+00
      5.94482602030979E-15   1.97229157820507E-17   5.96454893609184E-15   1.37701139869386E-08
      7.04732885611932E-03
      3.52366401483016E-01   3.52366401483018E-01   0.00000000000000E+00   0.00000000000000E+00  -7.31555553234065E-26
      7.31555553234065E-26   0.00000000000000E+00   2.03271033972599E-08   3.52366401483016E-01   3.52366401483016E-01
      0.00000000000000E+00   0.00000000000000E+00  -3.65551114835394E-17  -7.53449829332589E-15  -7.57105340480943E-15
     -3.40972176145312E-08   3.52366442805966E-01   3.52366442805967E-01   0.00000000000000E+00   0.00000000000000E+00
      7.58919715991658E-15  -1.81437551071839E-17   7.57105340480939E-15   1.37701142172710E-08
      1.02486978166466E-02
      5.12434842357177E-01   5.12434842357175E-01   0.00000000000000E+00   0.00000000000000E+00  -8.23929444911713E-26
      8.23929444911713E-26   0.00000000000000E+00   2.03271033539703E-08   5.12434842357177E-01   5.12434842357178E-01
      0.00000000000000E+00   0.00000000000000E+00  -8.35279752150004E-18  -8.82408900096641E-15  -8.83244179848791E-15
     -3.40972177552420E-08   5.12434890832332E-01   5.12434890832332E-01   0.00000000000000E+00   0.00000000000000E+00
      8.86821104588047E-15  -3.57692473924935E-17   8.83244179848798E-15   1.37701144012716E-08
      1.09828784315942E-02
      5.49143872008780E-01   5.49143872008781E-01   0.00000000000000E+00   0.00000000000000E+00  -7.78322744918542E-26
      7.78322744918542E-26   0.00000000000000E+00   2.03271033473380E-08   5.49143872008780E-01   5.49143872008778E-01
      0.00000000000000E+00   0.00000000000000E+00  -3.14955063144150E-17  -9.04032327912939E-15  -9.07181878544380E-15
     -3.40972177768000E-08   5.49143921579712E-01   5.49143921579713E-01   0.00000000000000E+00   0.00000000000000E+00
      9.09162990989525E-15  -1.98111244515665E-17   9.07181878544368E-15   1.37701144294621E-08
      1.20719130104332E-02
      6.03595599247733E-01   6.03595599247734E-01   0.00000000000000E+00   0.00000000000000E+00  -8.20577082849942E-26
      8.20577082849942E-26   0.00000000000000E+00   2.03271033370305E-08   6.03595599247733E-01   6.03595599247734E-01
      0.00000000000000E+00   0.00000000000000E+00   6.21824583379415E-17  -9.38610700557074E-15  -9.32392454723280E-15
     -3.40972178103044E-08   6.03595650521659E-01   6.03595650521658E-01   0.00000000000000E+00   0.00000000000000E+00
      9.30920989486473E-15   1.47146523680111E-17   9.32392454723274E-15   1.37701144732738E-08
      1.36873143023776E-02
      6.84365660464381E-01   6.84365660464384E-01   0.00000000000000E+00   0.00000000000000E+00  -6.57013070066079E-26
      6.57013070066079E-26   0.00000000000000E+00   2.03271033165692E-08   6.84365660464381E-01   6.84365660464381E-01
      0.00000000000000E+00   0.00000000000000E+00   1.12571325641482E-16  -9.90238861467166E-15  -9.78981728903018E-15
     -3.40972178768130E-08   6.84365715118881E-01   6.84365715118880E-01   0.00000000000000E+00   0.00000000000000E+00
      9.87669194104070E-15  -8.68746520104627E-17   9.78981728903024E-15   1.37701145602439E-08
      1.60700312079956E-02
      8.03501498104852E-01   8.03501498104852E-01   0.00000000000000E+00   0.00000000000000E+00  -6.56722718009572E-26
      6.56722718009572E-26   0.00000000000000E+00   2.03271032703246E-08   8.03501498104852E-01   8.03501498104854E-01
      0.00000000000000E+00   0.00000000000000E+00  -7.92360930572363E-17  -1.13618977178294E-14  -1.14411338108867E-14
     -3.40972180271292E-08   8.03501560399782E-01   8.03501560399783E-01   0.00000000000000E+00   0.00000000000000E+00
      1.14649484876798E-14  -2.38146767929986E-17   1.14411338108868E-14   1.37701147568049E-08
      1.95845386437822E-02
      9.79226857263872E-01   9.79226857263874E-01   0.00000000000000E+00   0.00000000000000E+00  -1.00396595697540E-25
      1.00396595697540E-25   0.00000000000000E+00   2.03271031938782E-08   9.79226857263872E-01   9.79226857263869E-01
      0.00000000000000E+00   0.00000000000000E+00   5.00982752735786E-16  -1.37277697738156E-14  -1.32267870210798E-14
     -3.40972182756151E-08   9.79226932189112E-01   9.79226932189115E-01   0.00000000000000E+00   0.00000000000000E+00
      1.31931836361789E-14   3.36033849008293E-17   1.32267870210797E-14   1.37701150817367E-08
      2.03249282102546E-02
      1.01624633243098E+00   1.01624633243098E+00   0.00000000000000E+00   0.00000000000000E+00  -9.73185689994282E-26
      9.73185689994282E-26   0.00000000000000E+00   2.03271031747732E-08   1.01624633243098E+00   1.01624633243098E+00
      0.00000000000000E+00   0.00000000000000E+00   5.50472081921994E-17  -1.43103907155043E-14  -1.42553435073121E-14
     -3.40972183377157E-08   1.01624641051273E+00   1.01624641051273E+00   0.00000000000000E+00   0.00000000000000E+00
      1.42160372900290E-14   3.93062172834762E-17   1.42553435073124E-14   1.37701151629424E-08
      2.07395463674791E-02
      1.03697723839901E+00   1.03697723839901E+00   0.00000000000000E+00   0.00000000000000E+00  -8.93389518852195E-26
      8.93389518852195E-26   0.00000000000000E+00   2.03271031633143E-08   1.03697723839901E+00   1.03697723839901E+00
      0.00000000000000E+00   0.00000000000000E+00  -7.00703166732166E-17  -1.44750021787608E-14  -1.45450724954340E-14
     -3.40972183749622E-08   1.03697731837396E+00   1.03697731837395E+00   0.00000000000000E+00   0.00000000000000E+00
      1.46871772743850E-14  -1.42104778950761E-16   1.45450724954343E-14   1.37701152116477E-08
      2.09592939908081E-02
      1.04796461852210E+00   1.04796461852210E+00   0.00000000000000E+00   0.00000000000000E+00  -6.15325712355803E-26
      6.15325712355803E-26   0.00000000000000E+00   2.03271031569993E-08   1.04796461852210E+00   1.04796461852210E+00
      0.00000000000000E+00   0.00000000000000E+00   4.17874797885102E-17  -1.49282488263126E-14  -1.48864613465241E-14
     -3.40972183954889E-08   1.04796469954041E+00   1.04796469954041E+00   0.00000000000000E+00   0.00000000000000E+00
      1.47660145878516E-14   1.20446758672366E-16   1.48864613465240E-14   1.37701152384894E-08
      2.12724343540520E-02
      1.06362163515279E+00   1.06362163515279E+00   0.00000000000000E+00   0.00000000000000E+00  -1.10450443947498E-25
      1.10450443947498E-25   0.00000000000000E+00   2.03271031477297E-08   1.06362163515279E+00   1.06362163515278E+00
      0.00000000000000E+00   0.00000000000000E+00   1.41376962573998E-17  -1.51159759530934E-14  -1.51018382568360E-14
     -3.40972184256193E-08   1.06362171770260E+00   1.06362171770260E+00   0.00000000000000E+00   0.00000000000000E+00
      1.50735790944272E-14   2.82591624086880E-17   1.51018382568359E-14   1.37701152778895E-08
      2.17212688747015E-02
      1.08606335905925E+00   1.08606335905925E+00   0.00000000000000E+00   0.00000000000000E+00  -8.89577967711281E-26
      8.89577967711281E-26   0.00000000000000E+00   2.03271031348618E-08   1.08606335905925E+00   1.08606335905925E+00
      0.00000000000000E+00   0.00000000000000E+00  -5.74861207931097E-17  -1.54796558037112E-14  -1.55371419245043E-14
     -3.40972184674458E-08   1.08606344373507E+00   1.08606344373508E+00   0.00000000000000E+00   0.00000000000000E+00
      1.55337749017201E-14   3.36702278420796E-18   1.55371419245043E-14   1.37701153325841E-08
      2.18253984834921E-02
      1.09126983877110E+00   1.09126983877111E+00   0.00000000000000E+00   0.00000000000000E+00  -8.87063669527706E-26
      8.87063669527706E-26   0.00000000000000E+00   2.03271031304574E-08   1.09126983877110E+00   1.09126983877110E+00
      0.00000000000000E+00   0.00000000000000E+00  -3.30928159163020E-17  -1.55084634967104E-14  -1.55415563126267E-14
     -3.40972184817621E-08   1.09126992417461E+00   1.09126992417461E+00   0.00000000000000E+00   0.00000000000000E+00
      1.56423815933630E-14  -1.00825280736323E-16   1.55415563126266E-14   1.37701153513045E-08
      2.18484458369045E-02
      1.09242220632027E+00   1.09242220632028E+00   0.00000000000000E+00   0.00000000000000E+00  -7.62027827654810E-26
      7.62027827654810E-26   0.00000000000000E+00   2.03271031297223E-08   1.09242220632027E+00   1.09242220632027E+00
      0.00000000000000E+00   0.00000000000000E+00   4.83100676492516E-17  -1.57681802285048E-14  -1.57198701608555E-14
     -3.40972184841514E-08   1.09242229184522E+00   1.09242229184522E+00   0.00000000000000E+00   0.00000000000000E+00
      1.55831751957542E-14   1.36694965101297E-16   1.57198701608555E-14   1.37701153544290E-08
      2.18533318758279E-02
      1.09266650824095E+00   1.09266650824095E+00   0.00000000000000E+00   0.00000000000000E+00  -5.90785604640951E-26
      5.90785604640951E-26   0.00000000000000E+00   2.03271031295680E-08   1.09266650824095E+00   1.09266650824095E+00
      0.00000000000000E+00   0.00000000000000E+00  -4.47189164837531E-17  -1.58898642391613E-14  -1.59345831556451E-14
     -3.40972184846529E-08   1.09266659379139E+00   1.09266659379140E+00   0.00000000000000E+00   0.00000000000000E+00
      1.56808635214526E-14   2.53719634192449E-16   1.59345831556450E-14   1.37701153550847E-08
      2.18604980662489E-02
      1.09302481772421E+00   1.09302481772421E+00   0.00000000000000E+00   0.00000000000000E+00  -6.25083636321149E-26
      6.25083636321149E-26   0.00000000000000E+00   2.03271031293393E-08   1.09302481772421E+00   1.09302481772422E+00
      0.00000000000000E+00   0.00000000000000E+00  -4.64966075710089E-17  -1.54912181361090E-14  -1.55377147436800E-14
     -3.40972184853966E-08   1.09302490331244E+00   1.09302490331244E+00   0.00000000000000E+00   0.00000000000000E+00
      1.56895478051871E-14  -1.51833061507018E-16   1.55377147436801E-14   1.37701153560570E-08
      2.18708890423594E-02
      1.09354436647488E+00   1.09354436647488E+00   0.00000000000000E+00   0.00000000000000E+00  -5.25862851943660E-26
      5.25862851943660E-26   0.00000000000000E+00   2.03271031290073E-08   1.09354436647488E+00   1.09354436647488E+00
      0.00000000000000E+00   0.00000000000000E+00  -2.10563055264583E-17  -1.56626689511783E-14  -1.56837252567048E-14
     -3.40972184864758E-08   1.09354445211797E+00   1.09354445211796E+00   0.00000000000000E+00   0.00000000000000E+00
      1.56741344042786E-14   9.59085242605124E-18   1.56837252567047E-14   1.37701153574683E-08
      2.18863889150575E-02
      1.09431936002788E+00   1.09431936002788E+00   0.00000000000000E+00   0.00000000000000E+00  -7.55065408987085E-26
      7.55065408987085E-26   0.00000000000000E+00   2.03271031285115E-08   1.09431936002788E+00   1.09431936002788E+00
      0.00000000000000E+00   0.00000000000000E+00  -3.90184864088300E-17  -1.56993462179552E-14  -1.57383647043640E-14
     -3.40972184880871E-08   1.09431944575287E+00   1.09431944575287E+00   0.00000000000000E+00   0.00000000000000E+00
      1.57070656643812E-14   3.12990399827956E-17   1.57383647043640E-14   1.37701153595753E-08
      2.19096387241046E-02
      1.09548185035723E+00   1.09548185035724E+00   0.00000000000000E+00   0.00000000000000E+00  -6.34935764687427E-26
      6.34935764687427E-26   0.00000000000000E+00   2.03271031277670E-08   1.09548185035723E+00   1.09548185035723E+00
      0.00000000000000E+00   0.00000000000000E+00   2.00496316443645E-17  -1.57576031821368E-14  -1.57375535504925E-14
     -3.40972184905073E-08   1.09548193620523E+00   1.09548193620523E+00   0.00000000000000E+00   0.00000000000000E+00
      1.56704800430378E-14   6.70735074546544E-17   1.57375535504924E-14   1.37701153627400E-08
      2.19445134376754E-02
      1.09722558585090E+00   1.09722558585090E+00   0.00000000000000E+00   0.00000000000000E+00  -7.12225452794590E-26
      7.12225452794590E-26   0.00000000000000E+00   2.03271031266481E-08   1.09722558585090E+00   1.09722558585090E+00
      0.00000000000000E+00   0.00000000000000E+00   3.27774920323295E-17  -1.56140611381602E-14  -1.55812836461279E-14
     -3.40972184941441E-08   1.09722567188377E+00   1.09722567188377E+00   0.00000000000000E+00   0.00000000000000E+00
      1.56915396437463E-14  -1.10255997618360E-16   1.55812836461280E-14   1.37701153674960E-08
      2.19968255080315E-02
      1.09984118909067E+00   1.09984118909068E+00   0.00000000000000E+00   0.00000000000000E+00  -6.62483584991901E-26
      6.62483584991901E-26   0.00000000000000E+00   2.03271031249653E-08   1.09984118909067E+00   1.09984118909067E+00
      0.00000000000000E+00   0.00000000000000E+00   1.77873776302812E-18  -1.55677825576782E-14  -1.55660038199152E-14
     -3.40972184996141E-08   1.09984127540157E+00   1.09984127540158E+00   0.00000000000000E+00   0.00000000000000E+00
      1.57733555403547E-14  -2.07351720439596E-16   1.55660038199151E-14   1.37701153746487E-08
      2.20752936135657E-02
      1.10376459394878E+00   1.10376459394878E+00   0.00000000000000E+00   0.00000000000000E+00  -8.00294647831323E-26
      8.00294647831323E-26   0.00000000000000E+00   2.03271031224316E-08   1.10376459394878E+00   1.10376459394878E+00
      0.00000000000000E+00   0.00000000000000E+00  -1.46866942213790E-16  -1.57539245088356E-14  -1.59007914510494E-14
     -3.40972185078497E-08   1.10376468067828E+00   1.10376468067829E+00   0.00000000000000E+00   0.00000000000000E+00
      1.59985093526176E-14  -9.77179015684157E-17   1.59007914510492E-14   1.37701153854179E-08
      2.21923418709875E-02
      1.10961700619245E+00   1.10961700619244E+00   0.00000000000000E+00   0.00000000000000E+00  -5.54941175006201E-26
      5.54941175006201E-26   0.00000000000000E+00   2.03271031186341E-08   1.10961700619245E+00   1.10961700619245E+00
      0.00000000000000E+00   0.00000000000000E+00   8.90948045970274E-18  -1.60358364043455E-14  -1.60269269238858E-14
     -3.40972185201932E-08   1.10961709354937E+00   1.10961709354937E+00   0.00000000000000E+00   0.00000000000000E+00
      1.59574069637482E-14   6.95199601375312E-17   1.60269269238857E-14   1.37701154015592E-08
      2.23669388549750E-02
      1.11834685445079E+00   1.11834685445079E+00   0.00000000000000E+00   0.00000000000000E+00  -7.63860198011203E-26
      7.63860198011203E-26   0.00000000000000E+00   2.03271031129384E-08   1.11834685445079E+00   1.11834685445079E+00
      0.00000000000000E+00   0.00000000000000E+00  -3.97309638627446E-17  -1.62669673079060E-14  -1.63066982717688E-14
     -3.40972185387071E-08   1.11834694274875E+00   1.11834694274875E+00   0.00000000000000E+00   0.00000000000000E+00
      1.61780418633197E-14   1.28656408449098E-16   1.63066982717688E-14   1.37701154257687E-08
      2.26273793560897E-02
      1.13136887809693E+00   1.13136887809693E+00   0.00000000000000E+00   0.00000000000000E+00  -6.93879627242618E-26
      6.93879627242618E-26   0.00000000000000E+00   2.03271031044066E-08   1.13136887809693E+00   1.13136887809693E+00
      0.00000000000000E+00   0.00000000000000E+00  -1.82813407470825E-17  -1.63227389563649E-14  -1.63410202971120E-14
     -3.40972185664390E-08   1.13136896780449E+00   1.13136896780449E+00   0.00000000000000E+00   0.00000000000000E+00
      1.64142253605077E-14  -7.32050633955202E-17   1.63410202971122E-14   1.37701154620326E-08
      2.30158697702525E-02
      1.15079339670925E+00   1.15079339670925E+00   0.00000000000000E+00   0.00000000000000E+00  -6.70786755863516E-26
      6.70786755863516E-26   0.00000000000000E+00   2.03271030917215E-08   1.15079339670925E+00   1.15079339670925E+00
      0.00000000000000E+00   0.00000000000000E+00  -4.72379333480471E-17  -1.67066214655721E-14  -1.67538593989202E-14
     -3.40972186076716E-08   1.15079348851263E+00   1.15079348851263E+00   0.00000000000000E+00   0.00000000000000E+00
      1.68262362914557E-14  -7.23768925358180E-17   1.67538593989199E-14   1.37701155159502E-08
      2.35953679713787E-02
      1.17976830372333E+00   1.17976830372333E+00   0.00000000000000E+00   0.00000000000000E+00  -7.52238993833688E-26
      7.52238993833688E-26   0.00000000000000E+00   2.03271030733080E-08   1.17976830372333E+00   1.17976830372333E+00
      0.00000000000000E+00   0.00000000000000E+00  -1.10946055156189E-16  -1.74979311176371E-14  -1.76088771727933E-14
     -3.40972186675239E-08   1.17976839856894E+00   1.17976839856893E+00   0.00000000000000E+00   0.00000000000000E+00
      1.74459756852240E-14   1.62901487569468E-16   1.76088771727935E-14   1.37701155942158E-08
      2.44597861213920E-02
      1.22298920707642E+00   1.22298920707642E+00   0.00000000000000E+00   0.00000000000000E+00  -6.86969560531659E-26
      6.86969560531659E-26   0.00000000000000E+00   2.03271030482044E-08   1.22298920707642E+00   1.22298920707642E+00
      0.00000000000000E+00   0.00000000000000E+00  -1.29306047058328E-16  -1.82160146605037E-14  -1.83453207075621E-14
     -3.40972187491223E-08   1.22298930606960E+00   1.22298930606960E+00   0.00000000000000E+00   0.00000000000000E+00
      1.82223905862711E-14   1.22930121290991E-16   1.83453207075621E-14   1.37701157009180E-08
      2.57420063772449E-02
      1.28710021494851E+00   1.28710021494851E+00   0.00000000000000E+00   0.00000000000000E+00  -6.95116108227028E-26
      6.95116108227028E-26   0.00000000000000E+00   2.03271030184221E-08   1.28710021494851E+00   1.28710021494851E+00
      0.00000000000000E+00   0.00000000000000E+00   5.69226794633660E-17  -1.89452011720318E-14  -1.88882784925684E-14
     -3.40972188459285E-08   1.28710031886225E+00   1.28710031886224E+00   0.00000000000000E+00   0.00000000000000E+00
      1.89354979417543E-14  -4.72194491858873E-17   1.88882784925684E-14   1.37701158275063E-08
      2.76439664234268E-02
      1.38219821257908E+00   1.38219821257907E+00   0.00000000000000E+00   0.00000000000000E+00  -6.22250732482277E-26
      6.22250732482277E-26   0.00000000000000E+00   2.03271029901048E-08   1.38219821257908E+00   1.38219821257907E+00
      0.00000000000000E+00   0.00000000000000E+00   6.97213544053278E-17  -1.96537243339776E-14  -1.95840029795723E-14
     -3.40972189379727E-08   1.38219832117134E+00   1.38219832117135E+00   0.00000000000000E+00   0.00000000000000E+00
      1.97777974539101E-14  -1.93794474338004E-16   1.95840029795721E-14   1.37701159478681E-08
      3.04652071585967E-02
      1.52326024571598E+00   1.52326024571597E+00   0.00000000000000E+00   0.00000000000000E+00  -7.61676347314102E-26
      7.61676347314102E-26   0.00000000000000E+00   2.03271029681848E-08   1.52326024571598E+00   1.52326024571598E+00
      0.00000000000000E+00   0.00000000000000E+00   6.07256021283845E-18  -2.06553860477828E-14  -2.06493134875700E-14
     -3.40972190092228E-08   1.52326035792983E+00   1.52326035792984E+00   0.00000000000000E+00   0.00000000000000E+00
      2.05033659592980E-14   1.45947528271821E-16   2.06493134875698E-14   1.37701160410381E-08
      3.46265372429721E-02
      1.73132674680977E+00   1.73132674680977E+00   0.00000000000000E+00   0.00000000000000E+00  -7.63244506836178E-26
      7.63244506836178E-26   0.00000000000000E+00   2.03271029492705E-08   1.73132674680977E+00   1.73132674680978E+00
      0.00000000000000E+00   0.00000000000000E+00  -6.77669557327623E-17  -2.10935796791383E-14  -2.11613466348711E-14
     -3.40972190707031E-08   1.73132686214861E+00   1.73132686214861E+00   0.00000000000000E+00   0.00000000000000E+00
      2.11483613341296E-14   1.29853007413803E-17   2.11613466348709E-14   1.37701161214328E-08
      3.50060505466672E-02
      1.75030241170542E+00   1.75030241170541E+00   0.00000000000000E+00   0.00000000000000E+00  -7.13050009447054E-26
      7.13050009447054E-26   0.00000000000000E+00   2.03271029475206E-08   1.75030241170542E+00   1.75030241170542E+00
      0.00000000000000E+00   0.00000000000000E+00  -2.22352044593276E-16  -2.09950193459241E-14  -2.12173713905174E-14
     -3.40972190763908E-08   1.75030252733336E+00   1.75030252733335E+00   0.00000000000000E+00   0.00000000000000E+00
      2.13557870148554E-14  -1.38415624338177E-16   2.12173713905172E-14   1.37701161288705E-08
      3.55658326696174E-02
      1.77829151741105E+00   1.77829151741105E+00   0.00000000000000E+00   0.00000000000000E+00  -7.95045023459074E-26
      7.95045023459074E-26   0.00000000000000E+00   2.03271029448461E-08   1.77829151741105E+00   1.77829151741105E+00
      0.00000000000000E+00   0.00000000000000E+00  -7.27693345528132E-17  -2.12470333745958E-14  -2.13198027091486E-14
     -3.40972190850843E-08   1.77829163348087E+00   1.77829163348088E+00   0.00000000000000E+00   0.00000000000000E+00
      2.12869667396912E-14   3.28359694572464E-17   2.13198027091485E-14   1.37701161402383E-08
      3.64008410030181E-02
      1.82004193336461E+00   1.82004193336461E+00   0.00000000000000E+00   0.00000000000000E+00  -6.09681801262210E-26
      6.09681801262210E-26   0.00000000000000E+00   2.03271029405096E-08   1.82004193336461E+00   1.82004193336461E+00
      0.00000000000000E+00   0.00000000000000E+00  -1.68550280985427E-16  -2.11664363467431E-14  -2.13349866277286E-14
     -3.40972190991801E-08   1.82004205015090E+00   1.82004205015091E+00   0.00000000000000E+00   0.00000000000000E+00
      2.15136979490059E-14  -1.78711321277267E-16   2.13349866277287E-14   1.37701161586706E-08
      3.68851458363905E-02
      1.84425717456632E+00   1.84425717456633E+00   0.00000000000000E+00   0.00000000000000E+00  -6.39711874414476E-26
      6.39711874414476E-26   0.00000000000000E+00   2.03271029376835E-08   1.84425717456632E+00   1.84425717456633E+00
      0.00000000000000E+00   0.00000000000000E+00  -1.62062971620287E-16  -2.13752784236128E-14  -2.15373413952331E-14
     -3.40972191083659E-08   1.84425729181952E+00   1.84425729181953E+00   0.00000000000000E+00   0.00000000000000E+00
      2.15925483916078E-14  -5.52069963746080E-17   2.15373413952332E-14   1.37701161706825E-08
      3.75914237183919E-02
      1.87957106788826E+00   1.87957106788826E+00   0.00000000000000E+00   0.00000000000000E+00  -9.49455362313901E-26
      9.49455362313901E-26   0.00000000000000E+00   2.03271029329738E-08   1.87957106788826E+00   1.87957106788826E+00
      0.00000000000000E+00   0.00000000000000E+00  -2.17672022516239E-16  -2.16965632688375E-14  -2.19142352913537E-14
     -3.40972191236748E-08   1.87957118591960E+00   1.87957118591960E+00   0.00000000000000E+00   0.00000000000000E+00
      2.17903770941153E-14   1.23858197238343E-16   2.19142352913537E-14   1.37701161907009E-08
      3.85978697002440E-02
      1.92989336561354E+00   1.92989336561355E+00   0.00000000000000E+00   0.00000000000000E+00  -5.07612458810168E-26