DF-ISE text

Info {
  version   = 1.0
  type      = xyplot
  datasets  = [
    "time"
    "Gate OuterVoltage" "Gate InnerVoltage" "Gate QuasiFermiPotential" "Gate DisplacementCurrent" "Gate eCurrent"
    "Gate hCurrent" "Gate TotalCurrent" "Gate Charge" "Emitter OuterVoltage" "Emitter InnerVoltage"
    "Emitter QuasiFermiPotential" "Emitter DisplacementCurrent" "Emitter eCurrent" "Emitter hCurrent" "Emitter TotalCurrent"
    "Emitter Charge" "Collector OuterVoltage" "Collector InnerVoltage" "Collector QuasiFermiPotential" "Collector DisplacementCurrent"
    "Collector eCurrent" "Collector hCurrent" "Collector TotalCurrent" "Collector Charge" ]
  functions = [
    Time
    OuterVoltage InnerVoltage QuasiFermiPotential DisplacementCurrent eCurrent
    hCurrent TotalCurrent Charge OuterVoltage InnerVoltage
    QuasiFermiPotential DisplacementCurrent eCurrent hCurrent TotalCurrent
    Charge OuterVoltage InnerVoltage QuasiFermiPotential DisplacementCurrent
    eCurrent hCurrent TotalCurrent Charge ]
}

Data {
      0.00000000000000E+00
      0.00000000000000E+00   0.00000000000000E+00   0.00000000000000E+00   0.00000000000000E+00  -9.90173405183172E-26
      9.90173405183172E-26   0.00000000000000E+00   2.03271036440394E-08   0.00000000000000E+00   0.00000000000000E+00
      0.00000000000000E+00   0.00000000000000E+00   1.51942488425956E-17   3.49498503660078E-16   3.64692752502674E-16
     -3.40972168015705E-08   0.00000000000000E+00   0.00000000000000E+00   0.00000000000000E+00   0.00000000000000E+00
     -1.51943005809947E-17  -3.49498451921687E-16  -3.64692752502681E-16   1.37701131575309E-08
      0.00000000000000E+00
      0.00000000000000E+00   0.00000000000000E+00   0.00000000000000E+00   0.00000000000000E+00  -7.27613360371863E-26
      7.27613360371863E-26   0.00000000000000E+00   2.03271036473717E-08   0.00000000000000E+00   0.00000000000000E+00
      0.00000000000000E+00   0.00000000000000E+00   2.27653176937295E-18  -3.62267358585756E-17  -3.39502040892026E-17
     -3.40972168015527E-08   0.00000000000000E+00   0.00000000000000E+00   0.00000000000000E+00   0.00000000000000E+00
     -2.27664135641241E-18   3.62268454456137E-17   3.39502040892013E-17   1.37701131541808E-08
      0.00000000000000E+00
      0.00000000000000E+00   0.00000000000000E+00   0.00000000000000E+00   0.00000000000000E+00  -4.96655548992567E-26
      4.96655548992567E-26   0.00000000000000E+00   2.03271036473717E-08   0.00000000000000E+00   0.00000000000000E+00
      0.00000000000000E+00   0.00000000000000E+00  -4.72431358488239E-18   2.17154684736940E-17   1.69911548888116E-17
     -3.40972168015527E-08   0.00000000000000E+00   0.00000000000000E+00   0.00000000000000E+00   0.00000000000000E+00
      4.72420165123806E-18  -2.17153565400498E-17  -1.69911548888117E-17   1.37701131541808E-08
      1.00000000000000E-02
      1.50000000000000E-01   1.50000000000000E-01   0.00000000000000E+00   0.00000000000000E+00  -7.47593925335526E-26
      7.47593925335526E-26   0.00000000000000E+00   2.40876945055290E-08   0.00000000000000E+00   0.00000000000000E+00
      0.00000000000000E+00   0.00000000000000E+00   6.80040571791318E-17  -1.29497186180459E-17   5.50543385610858E-17
     -3.69119059744438E-08   0.00000000000000E+00   0.00000000000000E+00   0.00000000000000E+00   0.00000000000000E+00
     -6.72455935551766E-17   1.21912549940949E-17  -5.50543385610817E-17   1.28242114689146E-08
      2.33777777777778E-02
      3.50666666666667E-01   3.50666666666667E-01   0.00000000000000E+00   0.00000000000000E+00  -6.94751827573074E-26
      6.94751827573074E-26   0.00000000000000E+00   2.92539631967682E-08   0.00000000000000E+00   0.00000000000000E+00
      0.00000000000000E+00   0.00000000000000E+00  -1.72871208566534E-15   5.36541501598336E-17  -1.67505793550551E-15
     -4.07302955041484E-08   0.00000000000000E+00   0.00000000000000E+00   0.00000000000000E+00   0.00000000000000E+00
      1.72862921241634E-15  -5.35712769108339E-17   1.67505793550550E-15   1.14763323073801E-08
      4.15120987654321E-02
      6.22681481481482E-01   6.22681481481482E-01   0.00000000000000E+00   0.00000000000000E+00  -3.87243315623953E-26
      3.87243315623953E-26   0.00000000000000E+00   3.64388942784428E-08   0.00000000000000E+00   0.00000000000000E+00
      0.00000000000000E+00   0.00000000000000E+00  -2.86731927138339E-15  -1.47898927931048E-17  -2.88210916417650E-15
     -4.60311056344791E-08   0.00000000000000E+00   0.00000000000000E+00   0.00000000000000E+00   0.00000000000000E+00
      2.89131049379699E-15  -9.20132962050762E-18   2.88210916417648E-15   9.59221135603630E-09
      6.59329843621399E-02
      9.88994765432099E-01   9.88994765432099E-01   0.00000000000000E+00   0.00000000000000E+00  -9.40727142125718E-26
      9.40727142125718E-26   0.00000000000000E+00   4.62289504747589E-08   0.00000000000000E+00   0.00000000000000E+00
      0.00000000000000E+00   0.00000000000000E+00  -5.88789946526466E-15   9.48755029460915E-17  -5.79302396231857E-15
     -5.32519946730471E-08   0.00000000000000E+00   0.00000000000000E+00   0.00000000000000E+00   0.00000000000000E+00
      5.77683764999212E-15   1.61863123264013E-17   5.79302396231852E-15   7.02304419828821E-09
      9.88197769657064E-02
      1.48229665448560E+00   1.48229665448560E+00   0.00000000000000E+00   0.00000000000000E+00  -7.17124695495225E-26
      7.17124695495225E-26   0.00000000000000E+00   5.94734466554121E-08   0.00000000000000E+00   0.00000000000000E+00
      0.00000000000000E+00   0.00000000000000E+00   1.05458455223422E-14  -2.69807806076385E-17   1.05188647417346E-14
     -6.30029807297600E-08   0.00000000000000E+00   0.00000000000000E+00   0.00000000000000E+00   0.00000000000000E+00
     -1.05449254508279E-14   2.60607090924712E-17  -1.05188647417355E-14   3.52953407434790E-09
      1.41938016157049E-01
      2.12907024235574E+00   2.12907024235574E+00   0.00000000000000E+00   0.00000000000000E+00  -8.49602377409794E-26
      8.49602377409794E-26   0.00000000000000E+00   7.68520904841695E-08   0.00000000000000E+00   0.00000000000000E+00
      0.00000000000000E+00   0.00000000000000E+00   4.69189969908182E-15  -4.28019803487010E-16   4.26387989559481E-15
     -7.57667465781386E-08   0.00000000000000E+00   0.00000000000000E+00   0.00000000000000E+00   0.00000000000000E+00
     -4.27656949430478E-15   1.26895987097327E-17  -4.26387989559505E-15  -1.08534390603059E-09
      1.99620638364134E-01
      2.99430957546202E+00   2.99430957546202E+00   0.00000000000000E+00   0.00000000000000E+00  -6.00057110603858E-26
      6.00057110603858E-26   0.00000000000000E+00   9.99976743470262E-08   0.00000000000000E+00   0.00000000000000E+00
      0.00000000000000E+00   0.00000000000000E+00   4.71982490475514E-14   2.05527175430691E-16   4.74037762229821E-14
     -9.27021674296663E-08   0.00000000000000E+00   0.00000000000000E+00   0.00000000000000E+00   0.00000000000000E+00
     -4.73793927703206E-14  -2.43834526618280E-17  -4.74037762229824E-14  -7.29550691735952E-09
      2.73710761999013E-01
      4.10566142998519E+00   4.10566142998519E+00   0.00000000000000E+00   0.00000000000000E+00  -7.60454519346768E-26
      7.60454519346768E-26   0.00000000000000E+00   1.29455925130003E-07   0.00000000000000E+00   0.00000000000000E+00
      0.00000000000000E+00   0.00000000000000E+00  -9.29145209737723E-15   7.61730856574389E-18  -9.28383478881148E-15
     -1.14150247243087E-07   0.00000000000000E+00   0.00000000000000E+00   0.00000000000000E+00   0.00000000000000E+00
      9.29162743354588E-15  -7.79264473573230E-18   9.28383478881015E-15  -1.53056778869151E-08
      3.71509725197052E-01
      5.57264587795578E+00   5.57264587795578E+00   0.00000000000000E+00   0.00000000000000E+00  -5.04046686347855E-26
      5.04046686347855E-26   0.00000000000000E+00   1.68095622187782E-07   0.00000000000000E+00   0.00000000000000E+00
      0.00000000000000E+00   0.00000000000000E+00   1.89000689577251E-14   1.97459893095803E-17   1.89198149470347E-14
     -1.42185507417667E-07   0.00000000000000E+00   0.00000000000000E+00   0.00000000000000E+00   0.00000000000000E+00
     -1.89000688052814E-14  -1.97461417537557E-17  -1.89198149470352E-14  -2.59101147701164E-08
      4.71509725197052E-01
      7.07264587795578E+00   7.07264587795578E+00   0.00000000000000E+00   0.00000000000000E+00  -6.34903221836564E-26
      6.34903221836564E-26   0.00000000000000E+00   2.09014965398611E-07   0.00000000000000E+00   9.18447372075268E-17
      0.00000000000000E+00   0.00000000000000E+00   8.62818649448930E-11   1.72686885003782E-11   1.03550553445271E-10
     -1.72241594242243E-07   0.00000000000000E+00  -8.77756665717503E-17   0.00000000000000E+00   0.00000000000000E+00
     -8.62818628592200E-11  -1.72686905860519E-11  -1.03550553445272E-10  -3.67733711563683E-08
      5.71509725197052E-01
      8.57264587795578E+00   8.57264587795578E+00   0.00000000000000E+00   0.00000000000000E+00  -6.10964787727967E-26
      6.10964787727967E-26   0.00000000000000E+00   2.51697712283484E-07   0.00000000000000E+00   0.00000000000000E+00
      0.00000000000000E+00   0.00000000000000E+00   6.25840144341620E-14   3.22788517054484E-17   6.26162932858675E-14
     -2.04048943687020E-07   0.00000000000000E+00   0.00000000000000E+00   0.00000000000000E+00   0.00000000000000E+00
     -6.25840143450485E-14  -3.22789408213660E-17  -6.26162932858699E-14  -4.76487685964664E-08
      6.71509725197052E-01
      1.00726458779558E+01   1.00726458779558E+01   0.00000000000000E+00   0.00000000000000E+00  -6.38981485965724E-26
      6.38981485965724E-26   0.00000000000000E+00   2.94592563895377E-07   0.00000000000000E+00   0.00000000000000E+00
      0.00000000000000E+00   0.00000000000000E+00  -1.59031437162975E-13  -1.77525512985872E-17  -1.59049189714274E-13
     -2.36060435999668E-07   0.00000000000000E+00   0.00000000000000E+00   0.00000000000000E+00   0.00000000000000E+00
      1.59031437208845E-13   1.77525054270637E-17   1.59049189714272E-13  -5.85321278957114E-08
      7.71509725197052E-01
      1.15726458779558E+01   1.15726458779558E+01   0.00000000000000E+00   0.00000000000000E+00  -8.00249623457472E-26
      8.00249623457472E-26   0.00000000000000E+00   3.37560068219825E-07   0.00000000000000E+00   0.00000000000000E+00
      0.00000000000000E+00   0.00000000000000E+00   5.33593739750285E-13   7.65649770120238E-14   6.10158716762309E-13
     -2.68138982309570E-07   0.00000000000000E+00   0.00000000000000E+00   0.00000000000000E+00   0.00000000000000E+00
     -5.33593674546468E-13  -7.65650422158430E-14  -6.10158716762311E-13  -6.94210859102562E-08
      8.71509725197052E-01
      1.30726458779558E+01   1.30726458779558E+01   0.00000000000000E+00   0.00000000000000E+00  -5.46683422743240E-26
      5.46683422743240E-26   0.00000000000000E+00   3.80565651450701E-07   0.00000000000000E+00   0.00000000000000E+00
      0.00000000000000E+00   0.00000000000000E+00   7.79838188394632E-14   3.06177051597972E-16   7.82899958910611E-14
     -3.00251466676600E-07   0.00000000000000E+00   0.00000000000000E+00   0.00000000000000E+00   0.00000000000000E+00
     -7.79838187364288E-14  -3.06177154635773E-16  -7.82899958910645E-14  -8.03141847741043E-08
      9.71509725197052E-01
      1.45726458779558E+01   1.45726458779558E+01   0.00000000000000E+00   0.00000000000000E+00  -5.23152740177545E-26
      5.23152740177545E-26   0.00000000000000E+00   4.23595085290485E-07   0.00000000000000E+00   0.00000000000000E+00
      0.00000000000000E+00   0.00000000000000E+00   2.30586125615372E-13  -5.93098641056923E-17   2.30526815751267E-13
     -3.32384620094490E-07   0.00000000000000E+00   0.00000000000000E+00   0.00000000000000E+00   0.00000000000000E+00
     -2.30586125873558E-13   5.93101223060118E-17  -2.30526815751252E-13  -9.12104651959916E-08
      1.00000000000000E+00
      1.50000000000000E+01   1.50000000000000E+01   0.00000000000000E+00   0.00000000000000E+00  -1.09567374361466E-25
      1.09567374361466E-25   0.00000000000000E+00   4.35857536629042E-07   0.00000000000000E+00   0.00000000000000E+00
      0.00000000000000E+00   0.00000000000000E+00   3.47089301639367E-12   2.22424456713995E-16   3.47111544085038E-12
     -3.41542206631768E-07   0.00000000000000E+00   0.00000000000000E+00   0.00000000000000E+00   0.00000000000000E+00
     -3.47089273543133E-12  -2.22705419077792E-16  -3.47111544085041E-12  -9.43153299972722E-08
}
