DF-ISE text

Info {
  version   = 1.0
  type      = xyplot
  datasets  = [
    "time"
    "v(gate)" "v(sw)" "v(bus)" "vdiff(gate,0)" "vdiff(sw,bus)"
    "i(vdc,bus)" "i(vgsrc,gate)" "i(lload,bus)" "i(Q1,sw)" "i(Q1,gate)"
    "i(Q1,0)" "i(Q2,bus)" "i(Q2,sw)" "i(Q2,gate)" ]
  functions = [
    Time
    Voltage Voltage Voltage Voltage Voltage
    Current Current Current Current Current
    Current Current Current Current ]
}

Data {
      0.00000000000000E+00
      0.00000000000000E+00   0.00000000000000E+00   0.00000000000000E+00   0.00000000000000E+00   0.00000000000000E+00
      0.00000000000000E+00   0.00000000000000E+00   0.00000000000000E+00   0.00000000000000E+00   0.00000000000000E+00
      0.00000000000000E+00   0.00000000000000E+00   0.00000000000000E+00   0.00000000000000E+00
      0.00000000000000E+00
      0.00000000000000E+00   1.70881021889475E-20   0.00000000000000E+00   0.00000000000000E+00   1.70881021889475E-20
     -8.46091608044645E-20   0.00000000000000E+00   3.41762043778951E-20  -3.39997068077090E-17   0.00000000000000E+00
      3.39997068077103E-17  -3.40305817089285E-17   3.40305817089298E-17   0.00000000000000E+00
      0.00000000000000E+00
      0.00000000000000E+00   5.05026383395083E-24   0.00000000000000E+00   0.00000000000000E+00   5.05026383395083E-24
     -3.19500807358393E-23   0.00000000000000E+00   1.01005276678967E-23   1.72108097452065E-17   0.00000000000000E+00
     -1.72108097452064E-17   1.71105271199889E-17  -1.71105271199888E-17   0.00000000000000E+00
