DF-ISE text

Info {
  version   = 1.0
  type      = xyplot
  datasets  = [
    "time"
    "Gate OuterVoltage" "Gate InnerVoltage" "Gate QuasiFermiPotential" "Gate DisplacementCurrent" "Gate eCurrent"
    "Gate hCurrent" "Gate TotalCurrent" "Gate Charge" "Emitter OuterVoltage" "Emitter InnerVoltage"
    "Emitter QuasiFermiPotential" "Emitter DisplacementCurrent" "Emitter eCurrent" "Emitter hCurrent" "Emitter TotalCurrent"
    "Emitter Charge" "Collector OuterVoltage" "Collector InnerVoltage" "Collector QuasiFermiPotential" "Collector DisplacementCurrent"
    "Collector eCurrent" "Collector hCurrent" "Collector TotalCurrent" "Collector Charge" ]
  functions = [
    Time
    OuterVoltage InnerVoltage QuasiFermiPotential DisplacementCurrent eCurrent
    hCurrent TotalCurrent Charge OuterVoltage InnerVoltage
    QuasiFermiPotential DisplacementCurrent eCurrent hCurrent TotalCurrent
    Charge OuterVoltage InnerVoltage QuasiFermiPotential DisplacementCurrent
    eCurrent hCurrent TotalCurrent Charge ]
}

Data {
      0.00000000000000E+00
     -3.23078867878904E-17   0.00000000000000E+00   0.00000000000000E+00   0.00000000000000E+00  -9.90173405183172E-26
      9.90173405183172E-26   0.00000000000000E+00   2.03271036440394E-08  -3.92379002062922E-17   0.00000000000000E+00
      0.00000000000000E+00   0.00000000000000E+00   1.47704830303039E-17   3.37823940715039E-16   3.52594423745343E-16
     -3.40972168015705E-08   1.35116106657830E-17  -8.98102018896385E-17   0.00000000000000E+00   0.00000000000000E+00
     -1.47705346302556E-17  -3.37823889115094E-16  -3.52594423745350E-16   1.37701131575309E-08
      0.00000000000000E+00
     -2.05141992539422E-20   0.00000000000000E+00   0.00000000000000E+00   0.00000000000000E+00  -7.27613360371863E-26
      7.27613360371863E-26   0.00000000000000E+00   2.03271036473717E-08  -4.16291367535361E-24   0.00000000000000E+00
      0.00000000000000E+00   0.00000000000000E+00  -2.58937390647624E-17  -4.80822151865433E-17  -7.39759542513057E-17
     -3.40972168015527E-08   1.29982807383993E-19   0.00000000000000E+00   0.00000000000000E+00   0.00000000000000E+00
      2.58936123145289E-17   4.80823419367764E-17   7.39759542513053E-17   1.37701131541808E-08
      0.00000000000000E+00
     -4.31142936510463E-22   0.00000000000000E+00   0.00000000000000E+00   0.00000000000000E+00  -4.99174993605854E-26
      4.99174993605854E-26   0.00000000000000E+00   2.03271036473717E-08  -1.11223420363671E-25   0.00000000000000E+00
      0.00000000000000E+00   0.00000000000000E+00   8.23725349186047E-18   1.76948304325604E-17   2.59320839244208E-17
     -3.40972168015527E-08  -1.04819701193585E-22   0.00000000000000E+00   0.00000000000000E+00   0.00000000000000E+00
     -8.23735769882927E-18  -1.76947262255913E-17  -2.59320839244206E-17   1.37701131541808E-08
      1.00000000000000E-04
      8.74608758988002E-13   8.74637432427277E-13   0.00000000000000E+00   0.00000000000000E+00  -9.83542482385989E-26
      9.83542482385989E-26   0.00000000000000E+00   2.02969030042172E-08   8.74608755548989E-13   8.74729277164485E-13
      0.00000000000000E+00   0.00000000000000E+00  -6.76170052608169E-13  -8.73899822031757E-10  -8.74575992084365E-10
     -3.41953882350184E-08   4.99999824978313E-03   4.99999824978305E-03   0.00000000000000E+00   0.00000000000000E+00
      8.74303905835904E-10   2.72086248457112E-13   8.74575992084361E-10   1.38984852308011E-08
      2.48333333333333E-04
      2.03694029938492E-12   2.03693258178853E-12   0.00000000000000E+00   0.00000000000000E+00  -5.54469727449615E-26
      5.54469727449615E-26   0.00000000000000E+00   2.02523365015957E-08   2.03694034022821E-12   2.03711627126294E-12
      0.00000000000000E+00   0.00000000000000E+00  -3.71334516494396E-13  -2.03540256571548E-09  -2.03577390023198E-09
     -3.43402806347144E-08   1.24166625903041E-02   1.24166625903039E-02   0.00000000000000E+00   0.00000000000000E+00
      2.03518480364218E-09   5.89096589794750E-13   2.03577390023197E-09   1.40879441331190E-08
      4.69597222222222E-04
      3.52121911670414E-12   3.52123537979937E-12   0.00000000000000E+00   0.00000000000000E+00  -8.51540091829829E-26
      8.51540091829829E-26   0.00000000000000E+00   2.01863771829510E-08   3.52121902823543E-12   3.52160275874820E-12
      0.00000000000000E+00   0.00000000000000E+00   1.53845847455348E-11  -3.51879426927348E-09  -3.50340968452794E-09
     -3.45547898223177E-08   2.34798540639797E-02   2.34798540639793E-02   0.00000000000000E+00   0.00000000000000E+00
      3.50250837944134E-09   9.01305086601723E-13   3.50340968452794E-09   1.43684126393670E-08
      7.99649189814815E-04
      5.31442339410876E-12   5.31441202903912E-12   0.00000000000000E+00   0.00000000000000E+00  -5.78286560518888E-26
      5.78286560518888E-26   0.00000000000000E+00   2.00891658355969E-08   5.31442339420338E-12   5.31496309746237E-12
      0.00000000000000E+00   0.00000000000000E+00  -3.16509616991814E-12  -5.31125830830502E-09  -5.31442340447494E-09
     -3.48711466799121E-08   3.99824488539014E-02   3.99824488539007E-02   0.00000000000000E+00   0.00000000000000E+00
      5.31320511539675E-09   1.21828907817576E-12   5.31442340447493E-09   1.47819808443150E-08
      1.28922627507716E-03
      7.36618288510826E-12   7.36622345825527E-12   0.00000000000000E+00   0.00000000000000E+00  -4.87749910063640E-26
      4.87749910063640E-26   0.00000000000000E+00   1.99476559066586E-08   7.36618288436503E-12   7.36695821615293E-12
      0.00000000000000E+00   0.00000000000000E+00  -3.68457152248141E-12  -7.36249832847301E-09  -7.36618289999549E-09
     -3.53324126945404E-08   6.44612990086054E-02   6.44612990086045E-02   0.00000000000000E+00   0.00000000000000E+00
      7.36476224501759E-09   1.42065497785364E-12   7.36618289999545E-09   1.53847567878817E-08
      2.01543228488297E-03
      9.70913203276211E-12   9.70909085968207E-12   0.00000000000000E+00   0.00000000000000E+00  -7.19570456940916E-26
      7.19570456940916E-26   0.00000000000000E+00   1.97440234933100E-08   9.70913204295931E-12   9.71010115179135E-12
      0.00000000000000E+00   0.00000000000000E+00  -3.93182261899347E-12  -9.70520204837022E-09  -9.70913387098921E-09
     -3.59990587337324E-08   1.00771594805737E-01   1.00771594805737E-01   0.00000000000000E+00   0.00000000000000E+00
      9.70761578998279E-09   1.51808100640430E-12   9.70913387098919E-09   1.62550352404224E-08
      3.09263786609493E-03
      1.25626481468992E-11   1.25626149999827E-11   0.00000000000000E+00   0.00000000000000E+00  -6.26296453265423E-26
      6.26296453265423E-26   0.00000000000000E+00   1.94572713059365E-08   1.25626481535185E-11   1.25639008263036E-11
      0.00000000000000E+00   0.00000000000000E+00  -4.28251396399588E-12  -1.25586397617444E-08  -1.25629222757084E-08
     -3.69497592968190E-08   1.54631868148533E-01   1.54631868148532E-01   0.00000000000000E+00   0.00000000000000E+00
      1.25613860145357E-08   1.53626117264493E-12   1.25629222757084E-08   1.74924879908823E-08
      4.69049281155933E-03
      1.61614474926651E-11   1.61614591827224E-11   0.00000000000000E+00   0.00000000000000E+00  -9.45583431819846E-26
      9.45583431819846E-26   0.00000000000000E+00   1.90710952274893E-08   1.61614474930355E-11   1.61630205432550E-11
      0.00000000000000E+00   0.00000000000000E+00  -4.00631893391313E-12  -1.61574411651265E-08  -1.61614474840604E-08
     -3.82795634124145E-08   2.34524608208178E-01   2.34524608208177E-01   0.00000000000000E+00   0.00000000000000E+00
      1.61598948673923E-08   1.55261666810667E-12   1.61614474840604E-08   1.92084681849253E-08
      7.04732885611932E-03
      2.06262558732553E-11   2.06262155478547E-11   0.00000000000000E+00   0.00000000000000E+00  -9.71375135638584E-26
      9.71375135638584E-26   0.00000000000000E+00   1.86056951415427E-08   2.06262558734287E-11   2.06283279768105E-11
      0.00000000000000E+00   0.00000000000000E+00  -4.00715965353661E-12  -2.06222464504406E-08  -2.06262536100941E-08
     -4.00815292386926E-08   3.52366401482996E-01   3.52366401482995E-01   0.00000000000000E+00   0.00000000000000E+00
      2.06247003383938E-08   1.55327170016802E-12   2.06262536100940E-08   2.14758340971499E-08
      1.02290575162753E-02
      2.41714203329050E-11   2.41714224040653E-11   0.00000000000000E+00   0.00000000000000E+00  -6.40181883551649E-26
      6.40181883551649E-26   0.00000000000000E+00   1.81965887238124E-08   2.41714203330584E-11   2.41738103672327E-11
      0.00000000000000E+00   0.00000000000000E+00  -4.00794206260923E-12  -2.41674123544985E-08  -2.41714202965611E-08
     -4.22645947972907E-08   5.11452827368652E-01   5.11452827368650E-01   0.00000000000000E+00   0.00000000000000E+00
      2.41698617816110E-08   1.55851495000055E-12   2.41714202965610E-08   2.40680060734786E-08
      1.43918191799794E-02
      2.82448559733774E-11   2.82448283439563E-11   0.00000000000000E+00   0.00000000000000E+00  -6.50655170199448E-26
      6.50655170199448E-26   0.00000000000000E+00   1.79124905743816E-08   2.82448559733603E-11   2.82476755308097E-11
      0.00000000000000E+00   0.00000000000000E+00  -4.00892344740185E-12  -2.82408475276059E-08  -2.82448564510533E-08
     -4.48295341564830E-08   7.19590902365361E-01   7.19590902365357E-01   0.00000000000000E+00   0.00000000000000E+00
      2.82432941833462E-08   1.56226770704991E-12   2.82448564510532E-08   2.69170435821016E-08
      2.03584442312886E-02
      3.90134295687875E-11   3.90134400920644E-11   0.00000000000000E+00   0.00000000000000E+00  -5.80263624942528E-26
      5.80263624942528E-26   0.00000000000000E+00   1.76843408928101E-08   3.90134290749880E-11   3.90173894157643E-11
      0.00000000000000E+00   0.00000000000000E+00  -2.57208649837864E-11  -3.90140793625475E-08  -3.90398002275313E-08
     -4.82481930544903E-08   1.01792213333402E+00   1.01792213333401E+00   0.00000000000000E+00   0.00000000000000E+00
      3.90338235904238E-08   5.97663710722256E-12   3.90398002275310E-08   3.05638521616807E-08
      2.84631099259836E-02
      5.48154928524964E-11   5.48155108180938E-11   0.00000000000000E+00   0.00000000000000E+00  -9.14436622657556E-26
      9.14436622657556E-26   0.00000000000000E+00   1.75174435454980E-08   5.48154928522352E-11   5.48209296575890E-11
      0.00000000000000E+00   0.00000000000000E+00  -3.74566202591624E-12  -5.48114786091229E-08  -5.48152242711488E-08
     -5.25727032028589E-08   1.42315538638360E+00   1.42315538638360E+00   0.00000000000000E+00   0.00000000000000E+00
      5.48136522549183E-08   1.57201623040859E-12   5.48152242711487E-08   3.50552596573612E-08
      3.28936605057502E-02
      5.68843252154816E-11   5.68843135236933E-11   0.00000000000000E+00   0.00000000000000E+00  -8.45961831013033E-26
      8.45961831013033E-26   0.00000000000000E+00   1.74677990237477E-08   5.68843252156539E-11   5.68900078974002E-11
      0.00000000000000E+00   0.00000000000000E+00  -4.00656132878591E-12  -5.68803127603481E-08  -5.68843193216769E-08
     -5.47486882274439E-08   1.64468291118996E+00   1.64468291118995E+00   0.00000000000000E+00   0.00000000000000E+00
      5.68827415141109E-08   1.57780756592642E-12   5.68843193216769E-08   3.72808892036967E-08
      3.52861578188241E-02
      5.77467826513884E-11   5.77468274508092E-11   0.00000000000000E+00   0.00000000000000E+00  -7.52574965051767E-26
      7.52574965051767E-26   0.00000000000000E+00   1.74454696585014E-08   5.77467826512399E-11   5.77525218245161E-11
      0.00000000000000E+00   0.00000000000000E+00  -4.01059674236337E-12  -5.77427707990033E-08  -5.77467813957457E-08
     -5.58801471195285E-08   1.76430777509482E+00   1.76430777509481E+00   0.00000000000000E+00   0.00000000000000E+00
      5.77452010623718E-08   1.58033337381964E-12   5.77467813957457E-08   3.84346774610278E-08
      3.88150913556082E-02
      5.96764881554791E-11   5.96764853795393E-11   0.00000000000000E+00   0.00000000000000E+00  -9.82176839879576E-26
      9.82176839879576E-26   0.00000000000000E+00   1.74193735684559E-08   5.96764881551164E-11   5.96824552874578E-11
      0.00000000000000E+00   0.00000000000000E+00  -4.00223271548123E-12  -5.96724758628661E-08  -5.96764780955816E-08
     -5.75098112362152E-08   1.94075444803933E+00   1.94075444803932E+00   0.00000000000000E+00   0.00000000000000E+00
      5.96748955410949E-08   1.58255448637392E-12   5.96764780955812E-08   4.00904376677599E-08
      4.38144138660524E-02
      6.58982635917801E-11   6.58983234121888E-11   0.00000000000000E+00   0.00000000000000E+00  -6.45918196022302E-26
      6.45918196022302E-26   0.00000000000000E+00   1.73892909161543E-08   6.58982635919454E-11   6.59048443885306E-11
      0.00000000000000E+00   0.00000000000000E+00  -3.54605040286865E-12  -6.58942021982410E-08  -6.58977482486438E-08
     -5.97693592092968E-08   2.19072056106799E+00   2.19072056106799E+00   0.00000000000000E+00   0.00000000000000E+00
      6.58962108229926E-08   1.53742565141982E-12   6.58977482486440E-08   4.23800682931435E-08
      5.09384484434352E-02
      7.08934625506794E-11   7.08934831346946E-11   0.00000000000000E+00   0.00000000000000E+00  -6.04446433117783E-26
      6.04446433117783E-26   0.00000000000000E+00   1.73551410746794E-08   7.08934633153569E-11   7.09005551794596E-11
      0.00000000000000E+00   0.00000000000000E+00  -5.00888670915569E-11  -7.09013490267308E-08  -7.09514378938224E-08
     -6.28927044149864E-08   2.54692227987550E+00   2.54692227987551E+00   0.00000000000000E+00   0.00000000000000E+00
      7.10018712556121E-08  -5.04333617897103E-11   7.09514378938224E-08   4.55375633403069E-08
      6.06152620777137E-02
      7.30455868720023E-11   7.30455890169413E-11   0.00000000000000E+00   0.00000000000000E+00  -7.67022841756117E-26
      7.67022841756117E-26   0.00000000000000E+00   1.73164723912325E-08   7.30455870456432E-11   7.30528447511807E-11
      0.00000000000000E+00   0.00000000000000E+00  -6.64900765483923E-11  -7.30433098243290E-08  -7.31097999008774E-08
     -6.68844238800929E-08   3.03076295718841E+00   3.03076295718841E+00   0.00000000000000E+00   0.00000000000000E+00
      7.31084739008566E-08   1.32600002083384E-12   7.31097999008775E-08   4.95679514888598E-08
      6.61955579401476E-02
      7.50527981521868E-11   7.50527639038746E-11   0.00000000000000E+00   0.00000000000000E+00  -6.27691375906482E-26
      6.27691375906482E-26   0.00000000000000E+00   1.72964920138482E-08   7.50527981520968E-11   7.50602951723257E-11
      0.00000000000000E+00   0.00000000000000E+00  -1.20425049418263E-11  -7.50487595758289E-08  -7.50608020807707E-08
     -6.90597906147905E-08   3.30977774623988E+00   3.30977774623988E+00   0.00000000000000E+00   0.00000000000000E+00
      7.50592283558038E-08   1.57372496679388E-12   7.50608020807706E-08   5.17632986009422E-08
      6.66776955026619E-02
      7.54024455335763E-11   7.54024168184237E-11   0.00000000000000E+00   0.00000000000000E+00  -7.71601961983458E-26
      7.71601961983458E-26   0.00000000000000E+00   1.72949002241901E-08   7.54024455338769E-11   7.54099480868747E-11
      0.00000000000000E+00   0.00000000000000E+00  -4.70149083481781E-11  -7.53984301165847E-08  -7.54454450249329E-08
     -6.92454227878387E-08   3.33388462366148E+00   3.33388462366148E+00   0.00000000000000E+00   0.00000000000000E+00
      7.54438477470787E-08   1.59727785391568E-12   7.54454450249326E-08   5.19505225636483E-08
      6.73928662203914E-02
      7.59744763543133E-11   7.59744258417522E-11   0.00000000000000E+00   0.00000000000000E+00  -7.17707924599170E-26
      7.17707924599170E-26   0.00000000000000E+00   1.72925794164253E-08   7.59744763579137E-11   7.59820489549404E-11
      0.00000000000000E+00   0.00000000000000E+00  -1.02462552653017E-09  -7.59704608539557E-08  -7.69950863804858E-08
     -6.95202126915498E-08   3.36964315839674E+00   3.36964315839673E+00   0.00000000000000E+00   0.00000000000000E+00
      7.69934887653018E-08   1.59761518365203E-12   7.69950863804854E-08   5.22276332751244E-08
      6.84596625410046E-02
      7.68929351382190E-11   7.68929650585646E-11   0.00000000000000E+00   0.00000000000000E+00  -6.49279388070176E-26
      6.49279388070176E-26   0.00000000000000E+00   1.72891944885676E-08   7.68929351886143E-11   7.69005881717529E-11
      0.00000000000000E+00   0.00000000000000E+00  -2.67007529582455E-11  -7.68887914332829E-08  -7.69154921862411E-08
     -6.99289812002435E-08   3.42298297257982E+00   3.42298297257980E+00   0.00000000000000E+00   0.00000000000000E+00
      7.69140222669836E-08   1.46991925709544E-12   7.69154921862407E-08   5.26397867116757E-08
      6.87071592873869E-02
      7.71070198477050E-11   7.71070551409954E-11   0.00000000000000E+00   0.00000000000000E+00  -6.83810148496344E-26
      6.83810148496344E-26   0.00000000000000E+00   1.72884199771632E-08   7.71070198552004E-11   7.71147700989208E-11
      0.00000000000000E+00   0.00000000000000E+00  -1.56961075389255E-11  -7.71030040606439E-08  -7.71187001681828E-08
     -7.00236440495821E-08   3.43535780946829E+00   3.43535780946827E+00   0.00000000000000E+00   0.00000000000000E+00
      7.71171531101362E-08   1.54705804650557E-12   7.71187001681827E-08   5.27352240724194E-08
      6.90639670967546E-02
      7.74110012958736E-11   7.74109693764151E-11   0.00000000000000E+00   0.00000000000000E+00  -6.62280121354267E-26
      6.62280121354267E-26   0.00000000000000E+00   1.72873092054808E-08   7.74110012927600E-11   7.74186843343405E-11
      0.00000000000000E+00   0.00000000000000E+00  -3.91275370109923E-12  -7.74069856144581E-08  -7.74108983681592E-08
     -7.01600141244384E-08   3.45319819932515E+00   3.45319819932514E+00   0.00000000000000E+00   0.00000000000000E+00
      7.74093000056983E-08   1.59836246112680E-12   7.74108983681594E-08   5.28727049189578E-08
      6.92637794700006E-02
      7.75775101420147E-11   7.75774838849723E-11   0.00000000000000E+00   0.00000000000000E+00  -5.14838687992000E-26
      5.14838687992000E-26   0.00000000000000E+00   1.72866898616340E-08   7.75775101423013E-11   7.75851988428978E-11
      0.00000000000000E+00   0.00000000000000E+00  -4.94271493488019E-12  -7.75734944655284E-08  -7.75784371804632E-08
     -7.02363312748048E-08   3.46318881765243E+00   3.46318881765242E+00   0.00000000000000E+00   0.00000000000000E+00
      7.75768433435157E-08   1.59383694698285E-12   7.75784371804627E-08   5.29496414131710E-08
      6.95585027205383E-02
      7.78241076037895E-11   7.78240870043746E-11   0.00000000000000E+00   0.00000000000000E+00  -8.12310261245439E-26
      8.12310261245439E-26   0.00000000000000E+00   1.72857794508963E-08   7.78241076890152E-11   7.78318938070372E-11
      0.00000000000000E+00   0.00000000000000E+00  -5.21030966519997E-12  -7.78199351899431E-08  -7.78251454996083E-08
     -7.03488368085518E-08   3.47792497968317E+00   3.47792497968318E+00   0.00000000000000E+00   0.00000000000000E+00
      7.78164570276920E-08   8.68847191598272E-12   7.78251454996080E-08   5.30630573576564E-08
      6.97284597950151E-02
      7.79509843325142E-11   7.79510164311954E-11   0.00000000000000E+00   0.00000000000000E+00  -6.61566583725962E-26
      6.61566583725962E-26   0.00000000000000E+00   1.72852559825401E-08   7.79509843367354E-11   7.79587313891208E-11
      0.00000000000000E+00   0.00000000000000E+00  -3.94595249981129E-12  -7.79472283180192E-08  -7.79511742705191E-08
     -7.04136825802897E-08   3.48642283315156E+00   3.48642283315155E+00   0.00000000000000E+00   0.00000000000000E+00
      7.79493155433777E-08   1.85872714131400E-12   7.79511742705190E-08   5.31284265977496E-08
      6.98236357567221E-02
      7.80247144448301E-11   7.80247677551730E-11   0.00000000000000E+00   0.00000000000000E+00  -1.08974873936627E-25
      1.08974873936627E-25   0.00000000000000E+00   1.72849632916750E-08   7.80247144445019E-11   7.80324827130984E-11
      0.00000000000000E+00   0.00000000000000E+00  -4.01573303307145E-12  -7.80206987109086E-08  -7.80247144439417E-08
     -7.04499861850113E-08   3.49118163108850E+00   3.49118163108849E+00   0.00000000000000E+00   0.00000000000000E+00
      7.80231333838547E-08   1.58106008731259E-12   7.80247144439420E-08   5.31650228933359E-08
      6.99632271672257E-02
      7.81310367609189E-11   7.81310321161221E-11   0.00000000000000E+00   0.00000000000000E+00  -7.43365181607596E-26
      7.43365181607596E-26   0.00000000000000E+00   1.72845345638478E-08   7.81310367609668E-11   7.81388389187847E-11
      0.00000000000000E+00   0.00000000000000E+00  -4.01574703317450E-12  -7.81270210139013E-08  -7.81310367609344E-08
     -7.05032187402263E-08   3.49816120139964E+00   3.49816120139961E+00   0.00000000000000E+00   0.00000000000000E+00
      7.81294379989816E-08   1.59876195265547E-12   7.81310367609343E-08   5.32186841763777E-08
      7.01714510212269E-02
      7.82853259948723E-11   7.82853312746307E-11   0.00000000000000E+00   0.00000000000000E+00  -6.49196453448002E-26
      6.49196453448002E-26   0.00000000000000E+00   1.72838961878608E-08   7.82853259949387E-11   7.82931380772934E-11
      0.00000000000000E+00   0.00000000000000E+00  -3.91775121777125E-12  -7.82815301066845E-08  -7.82854478579023E-08
     -7.05825964925127E-08   3.50857239378904E+00   3.50857239378903E+00   0.00000000000000E+00   0.00000000000000E+00
      7.82836290447023E-08   1.81881319960785E-12   7.82854478579019E-08   5.32987003046518E-08
      7.02908326975209E-02
      7.83651797158604E-11   7.83651443512641E-11   0.00000000000000E+00   0.00000000000000E+00  -7.28786252649087E-26
      7.28786252649087E-26   0.00000000000000E+00   1.72835307617791E-08   7.83651799669942E-11   7.83730429986639E-11
      0.00000000000000E+00   0.00000000000000E+00  -5.53307224423561E-12  -7.83607037673947E-08  -7.83662368396389E-08
     -7.06280919207511E-08   3.51454147744284E+00   3.51454147744283E+00   0.00000000000000E+00   0.00000000000000E+00
      7.83713092537716E-08  -5.07241413321982E-12   7.83662368396383E-08   5.33445611589719E-08
      7.04470237240056E-02
      7.84812132964470E-11   7.84812360990944E-11   0.00000000000000E+00   0.00000000000000E+00  -5.27090127661832E-26
      5.27090127661832E-26   0.00000000000000E+00   1.72830532533046E-08   7.84812133795944E-11   7.84890429017570E-11
      0.00000000000000E+00   0.00000000000000E+00  -3.95735066127143E-12  -7.84771309593517E-08  -7.84810883100129E-08
     -7.06875995437508E-08   3.52235102853344E+00   3.52235102853342E+00   0.00000000000000E+00   0.00000000000000E+00
      7.84796328269998E-08   1.45548301282951E-12   7.84810883100126E-08   5.34045462904460E-08
      7.06800086718453E-02
      7.86394336708448E-11   7.86394845813030E-11   0.00000000000000E+00   0.00000000000000E+00  -6.82549757591797E-26
      6.82549757591797E-26   0.00000000000000E+00   1.72823421268423E-08   7.86394336697931E-11   7.86473832287028E-11
      0.00000000000000E+00   0.00000000000000E+00  -4.01559275672955E-12  -7.86354178494631E-08  -7.86394334422199E-08
     -7.07763330663169E-08   3.53400027560665E+00   3.53400027560664E+00   0.00000000000000E+00   0.00000000000000E+00
      7.86378342668340E-08   1.59917538595091E-12   7.86394334422200E-08   5.34939909394736E-08
      7.07017539336436E-02
      7.86540686345487E-11   7.86540878945190E-11   0.00000000000000E+00   0.00000000000000E+00  -5.82831805879763E-26
      5.82831805879763E-26   0.00000000000000E+00   1.72822758216828E-08   7.86540686107866E-11   7.86618946971816E-11
      0.00000000000000E+00   0.00000000000000E+00   2.02480664299860E-12  -7.86500524694271E-08  -7.86480276627841E-08
     -7.07846129416908E-08   3.53508753866708E+00   3.53508753866707E+00   0.00000000000000E+00   0.00000000000000E+00
      7.86462155066847E-08   1.81215609902500E-12   7.86480276627837E-08   5.35023371200070E-08
      7.07334657737662E-02
      7.86747338804047E-11   7.86747529603907E-11   0.00000000000000E+00   0.00000000000000E+00  -7.84877365771383E-26
      7.84877365771383E-26   0.00000000000000E+00   1.72821791462569E-08   7.86747338733529E-11   7.86826516077905E-11
      0.00000000000000E+00   0.00000000000000E+00  -3.97612375817033E-12  -7.86708041550037E-08  -7.86747802787618E-08
     -7.07966871795370E-08   3.53667313063157E+00   3.53667313063156E+00   0.00000000000000E+00   0.00000000000000E+00
      7.86730949701601E-08   1.68530860141901E-12   7.86747802787615E-08   5.35145080332789E-08
      7.07409497680352E-02
      7.86796464894801E-11   7.86797125761999E-11   0.00000000000000E+00   0.00000000000000E+00  -4.78423513403399E-26
      4.78423513403399E-26   0.00000000000000E+00   1.72821563342179E-08   7.86796464906546E-11   7.86875193788625E-11
      0.00000000000000E+00   0.00000000000000E+00  -4.02185633962212E-12  -7.86762178093538E-08  -7.86802396656935E-08
     -7.07995365994883E-08   3.53704733033511E+00   3.53704733033512E+00   0.00000000000000E+00   0.00000000000000E+00
      7.86780533212711E-08   2.18634442188157E-12   7.86802396656930E-08   5.35173802652702E-08
      7.07425164175021E-02
      7.86806752225800E-11   7.86807228683092E-11   0.00000000000000E+00   0.00000000000000E+00  -7.76420737501785E-26
      7.76420737501785E-26   0.00000000000000E+00   1.72821515590584E-08   7.86806752227825E-11   7.86885296709718E-11
      0.00000000000000E+00   0.00000000000000E+00  -4.01582560047570E-12  -7.86766593971591E-08  -7.86806752227596E-08
     -7.08001330732319E-08   3.53712566280639E+00   3.53712566280637E+00   0.00000000000000E+00   0.00000000000000E+00
      7.86790747797156E-08   1.60044304404390E-12   7.86806752227596E-08   5.35179815141725E-08
      7.07448272254659E-02
      7.86821891744915E-11   7.86821923841045E-11   0.00000000000000E+00   0.00000000000000E+00  -7.90524930861662E-26
      7.90524930861662E-26   0.00000000000000E+00   1.72821445158015E-08   7.86821891746433E-11   7.86900910315043E-11
      0.00000000000000E+00   0.00000000000000E+00  -4.01582442337212E-12  -7.86781732741484E-08  -7.86821890985718E-08
     -7.08010128689491E-08   3.53724120320153E+00   3.53724120320152E+00   0.00000000000000E+00   0.00000000000000E+00
      7.86805897770709E-08   1.59932150068916E-12   7.86821890985716E-08   5.35188683531466E-08
      7.07482934374116E-02
      7.86844599629429E-11   7.86844885025347E-11   0.00000000000000E+00   0.00000000000000E+00  -8.01999391881340E-26
      8.01999391881340E-26   0.00000000000000E+00   1.72821339511440E-08   7.86844599627665E-11   7.86922953051973E-11
      0.00000000000000E+00   0.00000000000000E+00  -4.01582618280774E-12  -7.86804441365824E-08  -7.86844599627652E-08
     -7.08023325557030E-08   3.53741451379423E+00   3.53741451379424E+00   0.00000000000000E+00   0.00000000000000E+00
      7.86828607972405E-08   1.59916552466184E-12   7.86844599627652E-08   5.35201986045577E-08
      7.07534927553301E-02
      7.86878637608030E-11   7.86878867578113E-11   0.00000000000000E+00   0.00000000000000E+00  -6.58424073334134E-26
      6.58424073334134E-26   0.00000000000000E+00   1.72821181046682E-08   7.86878637607107E-11   7.86956935604740E-11
      0.00000000000000E+00   0.00000000000000E+00  -4.01582670692209E-12  -7.86838479339845E-08  -7.86878637606914E-08
     -7.08043120704922E-08   3.53767447968330E+00   3.53767447968329E+00   0.00000000000000E+00   0.00000000000000E+00
      7.86862645497413E-08   1.59921094973139E-12   7.86878637606910E-08   5.35221939658229E-08
      7.07612917322078E-02
      7.86929628604112E-11   7.86929382183577E-11   0.00000000000000E+00   0.00000000000000E+00  -7.99550150856100E-26
      7.99550150856100E-26   0.00000000000000E+00   1.72820943361026E-08   7.86929628607916E-11   7.87008368657576E-11
      0.00000000000000E+00   0.00000000000000E+00  -4.01582749308568E-12  -7.86889470332421E-08  -7.86929628607352E-08
     -7.08072813081810E-08   3.53806442851691E+00   3.53806442851689E+00   0.00000000000000E+00   0.00000000000000E+00
      7.86913636460763E-08   1.59921465880915E-12   7.86929628607351E-08   5.35251869720777E-08
      7.07729901975244E-02
      7.87005968180437E-11   7.87006531762832E-11   0.00000000000000E+00   0.00000000000000E+00  -7.50370720401669E-26
      7.50370720401669E-26   0.00000000000000E+00   1.72820586858280E-08   7.87005968179682E-11   7.87084599789458E-11
      0.00000000000000E+00   0.00000000000000E+00  -4.01582867235070E-12  -7.86965809892662E-08  -7.87005968179385E-08
     -7.08117350871796E-08   3.53864935176735E+00   3.53864935176735E+00   0.00000000000000E+00   0.00000000000000E+00
      7.86989975977973E-08   1.59922014126065E-12   7.87005968179386E-08   5.35296764013509E-08
      7.07905378954993E-02
      7.87120146776753E-11   7.87120419236969E-11   0.00000000000000E+00   0.00000000000000E+00  -7.12024010928879E-26
      7.12024010928879E-26   0.00000000000000E+00   1.72820052161789E-08   7.87120146758192E-11   7.87199405710968E-11
      0.00000000000000E+00   0.00000000000000E+00  -4.01583044128050E-12  -7.87079988453428E-08  -7.87120146757841E-08
     -7.08184155814886E-08   3.53952673664309E+00   3.53952673664308E+00   0.00000000000000E+00   0.00000000000000E+00
      7.87104154466547E-08   1.59922912929183E-12   7.87120146757840E-08   5.35364103653097E-08
      7.08168594424616E-02
      7.87290669992419E-11   7.87290332000803E-11   0.00000000000000E+00   0.00000000000000E+00  -7.02084800242432E-26
      7.02084800242432E-26   0.00000000000000E+00   1.72819250245722E-08   7.87290670004780E-11   7.87369318474802E-11
      0.00000000000000E+00   0.00000000000000E+00  -4.01583309472697E-12  -7.87250511672142E-08  -7.87290670003089E-08
     -7.08284359319187E-08   3.54084281395684E+00   3.54084281395684E+00   0.00000000000000E+00   0.00000000000000E+00
      7.87274678444462E-08   1.59915586254703E-12   7.87290670003087E-08   5.35465109073464E-08
      7.08563417629051E-02
      7.87544784905421E-11   7.87544741922868E-11   0.00000000000000E+00   0.00000000000000E+00  -7.51234333046283E-26