DF-ISE text

Info {
  version   = 1.0
  type      = xyplot
  datasets  = [
    "time"
    "Gate OuterVoltage" "Gate InnerVoltage" "Gate QuasiFermiPotential" "Gate DisplacementCurrent" "Gate eCurrent"
    "Gate hCurrent" "Gate TotalCurrent" "Gate Charge" "Emitter OuterVoltage" "Emitter InnerVoltage"
    "Emitter QuasiFermiPotential" "Emitter DisplacementCurrent" "Emitter eCurrent" "Emitter hCurrent" "Emitter TotalCurrent"
    "Emitter Charge" "Emitter Temperature" "Emitter lHeatFlux" "Collector OuterVoltage" "Collector InnerVoltage"
    "Collector QuasiFermiPotential" "Collector DisplacementCurrent" "Collector eCurrent" "Collector hCurrent" "Collector TotalCurrent"
    "Collector Charge" "Collector Temperature" "Collector lHeatFlux" "Tmin" "Tave"
    "Tmax" ]
  functions = [
    Time
    OuterVoltage InnerVoltage QuasiFermiPotential DisplacementCurrent eCurrent
    hCurrent TotalCurrent Charge OuterVoltage InnerVoltage
    QuasiFermiPotential DisplacementCurrent eCurrent hCurrent TotalCurrent
    Charge Temperature lHeatFlux OuterVoltage InnerVoltage
    QuasiFermiPotential DisplacementCurrent eCurrent hCurrent TotalCurrent
    Charge Temperature lHeatFlux MinTemperature AveTemperature
    MaxTemperature ]
}

Data {
      0.00000000000000E+00
      0.00000000000000E+00   0.00000000000000E+00   0.00000000000000E+00   0.00000000000000E+00  -9.90173405183172E-26
      9.90173405183172E-26   0.00000000000000E+00   2.03271036440394E-08   0.00000000000000E+00   0.00000000000000E+00
      0.00000000000000E+00   0.00000000000000E+00   1.51942488425956E-17   3.49498503660078E-16   3.64692752502674E-16
     -3.40972168015705E-08   3.00000000000000E+02   0.00000000000000E+00   0.00000000000000E+00   0.00000000000000E+00
      0.00000000000000E+00   0.00000000000000E+00  -1.51943005809947E-17  -3.49498451921687E-16  -3.64692752502681E-16
      1.37701131575309E-08   3.00000000000000E+02   0.00000000000000E+00   3.00000000000000E+02   2.99999999999966E+02
      3.00000000000000E+02
      0.00000000000000E+00
      0.00000000000000E+00   0.00000000000000E+00   0.00000000000000E+00   0.00000000000000E+00  -7.27613360371863E-26
      7.27613360371863E-26   0.00000000000000E+00   2.03271036473717E-08   0.00000000000000E+00   0.00000000000000E+00
      0.00000000000000E+00   0.00000000000000E+00   2.27653176937295E-18  -3.62267358585756E-17  -3.39502040892026E-17
     -3.40972168015527E-08   3.00000000000000E+02   0.00000000000000E+00   0.00000000000000E+00   0.00000000000000E+00
      0.00000000000000E+00   0.00000000000000E+00  -2.27664135641241E-18   3.62268454456137E-17   3.39502040892013E-17
      1.37701131541808E-08   3.00000000000000E+02   0.00000000000000E+00   3.00000000000000E+02   2.99999999999966E+02
      3.00000000000000E+02
      0.00000000000000E+00
      0.00000000000000E+00   0.00000000000000E+00   0.00000000000000E+00   0.00000000000000E+00  -4.21343268580281E-26
      4.21343268580281E-26   0.00000000000000E+00   2.03271036473717E-08   0.00000000000000E+00   0.00000000000000E+00
      0.00000000000000E+00   0.00000000000000E+00  -4.72472115295643E-18   2.17082521792747E-17   1.69835310263183E-17
     -3.40972168015527E-08   3.00000000000000E+02   0.00000000000000E+00   0.00000000000000E+00   0.00000000000000E+00
      0.00000000000000E+00   0.00000000000000E+00   4.72460921848402E-18  -2.17081402448024E-17  -1.69835310263184E-17
      1.37701131541808E-08   3.00000000000000E+02   0.00000000000000E+00   3.00000000000000E+02   2.99999999999966E+02
      3.00000000000000E+02
      0.00000000000000E+00
      0.00000000000000E+00   0.00000000000000E+00   0.00000000000000E+00   0.00000000000000E+00  -1.16289152492233E-25
      1.16289152492233E-25   0.00000000000000E+00   2.03271036473717E-08   0.00000000000000E+00   0.00000000000000E+00
      0.00000000000000E+00   0.00000000000000E+00  -1.64582753815574E-17  -1.61668586942956E-18  -1.80749612509870E-17
     -3.40972168015527E-08   3.00000000000000E+02   0.00000000000000E+00   0.00000000000000E+00   0.00000000000000E+00
      0.00000000000000E+00   0.00000000000000E+00   1.64581392498681E-17   1.61682200111869E-18   1.80749612509868E-17
      1.37701131541808E-08   3.00000000000000E+02   0.00000000000000E+00   3.00000000000000E+02   2.99999999999966E+02
      3.00000000000000E+02
      1.00000000000000E-03
      0.00000000000000E+00   0.00000000000000E+00   0.00000000000000E+00   0.00000000000000E+00  -2.40335914329994E-25
      2.40335914329994E-25   0.00000000000000E+00   2.02969029936623E-08   0.00000000000000E+00   6.52306372212548E-16
      0.00000000000000E+00   0.00000000000000E+00  -6.76873969185573E-13  -8.73901540487563E-10  -8.74578414456749E-10
     -3.41953882693305E-08   3.00000000000000E+02   1.01351572544583E-10   5.00000000000000E-03   4.99999999999858E-03
      0.00000000000000E+00   0.00000000000000E+00   8.74304902161223E-10   2.73512295522755E-13   8.74578414456746E-10
      1.38984852756682E-08   3.00000000000000E+02   5.90510445934865E-11   2.99999999999999E+02   2.99999999999966E+02
      3.00000000000000E+02
      2.86666666666667E-03
      0.00000000000000E+00   0.00000000000000E+00   0.00000000000000E+00   0.00000000000000E+00  -3.45641504888838E-25
      3.45641504888838E-25   0.00000000000000E+00   2.02408644870250E-08   0.00000000000000E+00   1.88125157746099E-15
      0.00000000000000E+00   0.00000000000000E+00   4.79225947368493E-12  -2.31218869193528E-09  -2.30739643246159E-09
     -3.43775830419257E-08   3.00000000000000E+02   4.95017054088958E-10   1.43333333333333E-02   1.43333333333307E-02
      0.00000000000000E+00   0.00000000000000E+00   2.30673936765612E-09   6.57064805467883E-13   2.30739643246158E-09
      1.41367185549011E-08   3.00000000000000E+02   1.55599760221579E-10   2.99999999999998E+02   2.99999999999966E+02
      3.00000000000001E+02
      6.35111111111111E-03
      0.00000000000000E+00   0.00000000000000E+00   0.00000000000000E+00   0.00000000000000E+00  -6.33460823758625E-25
      6.33460823758625E-25   0.00000000000000E+00   2.01374493880439E-08   0.00000000000000E+00   4.44559838790296E-15
      0.00000000000000E+00   0.00000000000000E+00  -2.84618553156139E-12  -4.47104655547478E-09  -4.47389274100634E-09
     -3.47139783945644E-08   3.00000000000000E+02   5.92574758536430E-10   3.17555555555556E-02   3.17555555555511E-02
      0.00000000000000E+00   0.00000000000000E+00   4.47279810217235E-09   1.09463883397888E-12   4.47389274100633E-09
      1.45765290065204E-08   3.00000000000000E+02   3.45902261837272E-10   2.99999999999997E+02   2.99999999999965E+02
      3.00000000000001E+02
      1.26231111111111E-02
      0.00000000000000E+00   0.00000000000000E+00   0.00000000000000E+00   0.00000000000000E+00  -2.44374528785370E-25
      2.44374528785370E-25   0.00000000000000E+00   1.99553497509777E-08   0.00000000000000E+00   7.06578262380632E-15
      0.00000000000000E+00   0.00000000000000E+00  -3.66815131884859E-12  -7.26296040925635E-09  -7.26662856057520E-09
     -3.53073024232737E-08   3.00000000000000E+02   8.52824819050585E-10   6.31155555555556E-02   6.31155555555483E-02
      0.00000000000000E+00   0.00000000000000E+00   7.26521505765891E-09   1.41350291623503E-12   7.26662856057515E-09
      1.53519526722959E-08   3.00000000000000E+02   5.91598008556397E-10   2.99999999999995E+02   2.99999999999964E+02
      3.00000000000002E+02
      2.39127111111111E-02
      0.00000000000000E+00   0.00000000000000E+00   0.00000000000000E+00   0.00000000000000E+00  -1.98907552007394E-25
      1.98907552007394E-25   0.00000000000000E+00   1.96417912996312E-08   0.00000000000000E+00   1.07468779434762E-14
      0.00000000000000E+00   0.00000000000000E+00  -3.97036624356666E-12  -1.07553503572430E-08  -1.07593207234865E-08
     -3.63358891976900E-08   3.00000000000000E+02   1.06434440528025E-09   1.19563555555556E-01   1.19563555555545E-01
      0.00000000000000E+00   0.00000000000000E+00   1.07577859065147E-08   1.53481697182434E-12   1.07593207234865E-08
      1.66940978980589E-08   3.00000000000000E+02   2.48828137578580E-10   2.99999999999993E+02   2.99999999999964E+02
      3.00000000000003E+02
      4.34813511111111E-02
      0.00000000000000E+00   0.00000000000000E+00   0.00000000000000E+00   0.00000000000000E+00  -3.52057445133824E-25
      3.52057445133824E-25   0.00000000000000E+00   1.91495085991973E-08   0.00000000000000E+00   1.54163478783225E-14
      0.00000000000000E+00   0.00000000000000E+00  -4.00592184604075E-12  -1.54321214356817E-08  -1.54361273575277E-08
     -3.80023981252030E-08   3.00000000000000E+02   3.16021801440019E-10   2.17406755555556E-01   2.17406755555540E-01
      0.00000000000000E+00   0.00000000000000E+00   1.54345751571578E-08   1.55220036993060E-12   1.54361273575277E-08
      1.88528895260059E-08   3.00000000000000E+02   3.49240972788540E-10   2.99999999999992E+02   2.99999999999964E+02
      3.00000000000004E+02
      7.74003271111111E-02
      0.00000000000000E+00   0.00000000000000E+00   0.00000000000000E+00   0.00000000000000E+00  -2.04377668242967E-25
      2.04377668242967E-25   0.00000000000000E+00   1.84956768515832E-08   0.00000000000000E+00   2.15908190751376E-14
      0.00000000000000E+00   0.00000000000000E+00  -4.00732239709889E-12  -2.16573967842772E-08  -2.16614041066743E-08
     -4.05787073183127E-08   3.00000000000000E+02  -1.93719698545177E-09   3.87001635555556E-01   3.87001635555534E-01
      0.00000000000000E+00   0.00000000000000E+00   2.16598477586123E-08   1.55634806198324E-12   2.16614041066743E-08
      2.20830304667294E-08   3.00000000000000E+02  -1.14684355910619E-09   2.99999999999989E+02   2.99999999999965E+02
      3.00000000000006E+02
      1.36193218844444E-01
      0.00000000000000E+00   0.00000000000000E+00   0.00000000000000E+00   0.00000000000000E+00  -1.64785447246060E-25
      1.64785447246060E-25   0.00000000000000E+00   1.79533517091847E-08   0.00000000000000E+00   2.67257748371947E-14
      0.00000000000000E+00   0.00000000000000E+00  -3.98408324983168E-12  -2.71683439675628E-08  -2.71723280508126E-08
     -4.43700272265219E-08   3.00000000000000E+02  -8.07431872444699E-09   6.80966094222222E-01   6.80966094222195E-01
      0.00000000000000E+00   0.00000000000000E+00   2.71707701114204E-08   1.55793939208066E-12   2.71723280508125E-08
      2.64166755173376E-08   3.00000000000000E+02  -3.87144441407887E-09   2.99999999999987E+02   2.99999999999967E+02
      3.00000000000007E+02
      2.38100897848889E-01
      0.00000000000000E+00   0.00000000000000E+00   0.00000000000000E+00   0.00000000000000E+00  -2.75782878349947E-25
      2.75782878349947E-25   0.00000000000000E+00   1.75982390780679E-08   0.00000000000000E+00   4.79565207948710E-14
      0.00000000000000E+00   0.00000000000000E+00  -4.01034690649214E-12  -4.78411306460008E-08  -4.78451409929073E-08
     -5.01390875460134E-08   3.00000000000000E+02  -3.03831301955268E-08   1.19050448924444E+00   1.19050448924440E+00
      0.00000000000000E+00   0.00000000000000E+00   4.78435700865095E-08   1.57090639801753E-12   4.78451409929076E-08
      3.25408484679453E-08   3.00000000000000E+02  -1.45827529021779E-08   2.99999999999980E+02   2.99999999999978E+02
      3.00000000000048E+02
      4.07947029522963E-01
      0.00000000000000E+00   0.00000000000000E+00   0.00000000000000E+00   0.00000000000000E+00  -2.21498797939535E-25
      2.21498797939535E-25   0.00000000000000E+00   1.74069743724530E-08   0.00000000000000E+00   6.15051850682745E-14
      0.00000000000000E+00   0.00000000000000E+00  -4.01070218475438E-12  -6.16790595306407E-08  -6.16830702328254E-08
     -5.84100704729199E-08   3.00000000000000E+02  -7.45598921505266E-08   2.03973514761482E+00   2.03973514761476E+00
      0.00000000000000E+00   0.00000000000000E+00   6.16814887245167E-08   1.58150830864259E-12   6.16830702328254E-08
      4.10030961004672E-08   3.00000000000000E+02  -3.55314228852186E-08   2.99999999999980E+02   3.00000000000006E+02
      3.00000000000140E+02
      6.91023915646420E-01
      0.00000000000000E+00   0.00000000000000E+00   0.00000000000000E+00   0.00000000000000E+00  -2.70994565706089E-25
      2.70994565706089E-25   0.00000000000000E+00   1.72871899526155E-08   0.00000000000000E+00   7.74673829188644E-14
      0.00000000000000E+00   0.00000000000000E+00  -4.01512348323149E-12  -7.74385951599863E-08  -7.74426102834696E-08
     -7.01746940350416E-08   3.00000000000000E+02  -1.68737523495138E-07   3.45511957823210E+00   3.45511957823202E+00
      0.00000000000000E+00   0.00000000000000E+00   7.74416616097365E-08   9.48673732660184E-13   7.74426102834691E-08
      5.28875040824252E-08   3.00000000000000E+02  -7.80582711710736E-08   2.99999999999986E+02   3.00000000000064E+02
      3.00000000000328E+02
      1.00000000000000E+00
      0.00000000000000E+00   0.00000000000000E+00   0.00000000000000E+00   0.00000000000000E+00  -2.96538679303680E-25
      2.96538679303680E-25   0.00000000000000E+00   1.71990951046015E-08   0.00000000000000E+00   8.33673635942525E-14
      0.00000000000000E+00   0.00000000000000E+00  -4.01862208214075E-12  -8.33829365543078E-08  -8.33869551763899E-08
     -8.17106042584897E-08   3.00000000000000E+02  -2.73661501347842E-07   5.00000000000000E+00   4.99999999999991E+00
      0.00000000000000E+00   0.00000000000000E+00   8.33857142879364E-08   1.24088845322086E-12   8.33869551763896E-08
      6.45115091538886E-08   3.00000000000000E+02  -1.19762268952201E-07   2.99999999999997E+02   3.00000000000119E+02
      3.00000000000506E+02
}
