DF-ISE text

Info {
  version   = 1.0
  type      = xyplot
  datasets  = [
    "time"
    "Gate OuterVoltage" "Gate InnerVoltage" "Gate QuasiFermiPotential" "Gate DisplacementCurrent" "Gate eCurrent"
    "Gate hCurrent" "Gate TotalCurrent" "Gate Charge" "Emitter OuterVoltage" "Emitter InnerVoltage"
    "Emitter QuasiFermiPotential" "Emitter DisplacementCurrent" "Emitter eCurrent" "Emitter hCurrent" "Emitter TotalCurrent"
    "Emitter Charge" "Emitter Temperature" "Emitter lHeatFlux" "Collector OuterVoltage" "Collector InnerVoltage"
    "Collector QuasiFermiPotential" "Collector DisplacementCurrent" "Collector eCurrent" "Collector hCurrent" "Collector TotalCurrent"
    "Collector Charge" "Collector Temperature" "Collector lHeatFlux" "Tmin" "Tave"
    "Tmax" ]
  functions = [
    Time
    OuterVoltage InnerVoltage QuasiFermiPotential DisplacementCurrent eCurrent
    hCurrent TotalCurrent Charge OuterVoltage InnerVoltage
    QuasiFermiPotential DisplacementCurrent eCurrent hCurrent TotalCurrent
    Charge Temperature lHeatFlux OuterVoltage InnerVoltage
    QuasiFermiPotential DisplacementCurrent eCurrent hCurrent TotalCurrent
    Charge Temperature lHeatFlux MinTemperature AveTemperature
    MaxTemperature ]
}

Data {
      0.00000000000000E+00
      0.00000000000000E+00   0.00000000000000E+00   0.00000000000000E+00   0.00000000000000E+00  -9.90173405183172E-26
      9.90173405183172E-26   0.00000000000000E+00   2.03271036440394E-08   0.00000000000000E+00   0.00000000000000E+00
      0.00000000000000E+00   0.00000000000000E+00   1.51932716283915E-17   3.49482838936328E-16   3.64676110564719E-16
     -3.40972168015705E-08   3.00000000000000E+02   0.00000000000000E+00   0.00000000000000E+00   0.00000000000000E+00
      0.00000000000000E+00   0.00000000000000E+00  -1.51933233667885E-17  -3.49482787197939E-16  -3.64676110564727E-16
      1.37701131575309E-08   3.00000000000000E+02   0.00000000000000E+00   3.00000000000000E+02   2.99999999999966E+02
      3.00000000000000E+02
      0.00000000000000E+00
      0.00000000000000E+00   0.00000000000000E+00   0.00000000000000E+00   0.00000000000000E+00  -7.27613360371863E-26
      7.27613360371863E-26   0.00000000000000E+00   2.03271036473717E-08   0.00000000000000E+00   0.00000000000000E+00
      0.00000000000000E+00   0.00000000000000E+00   2.27659284330158E-18  -3.62294600808398E-17  -3.39528672375382E-17
     -3.40972168015527E-08   3.00000000000000E+02   0.00000000000000E+00   0.00000000000000E+00   0.00000000000000E+00
      0.00000000000000E+00   0.00000000000000E+00  -2.27670249034982E-18   3.62295697278868E-17   3.39528672375369E-17
      1.37701131541808E-08   3.00000000000000E+02   0.00000000000000E+00   3.00000000000000E+02   2.99999999999966E+02
      3.00000000000000E+02
      0.00000000000000E+00
      0.00000000000000E+00   0.00000000000000E+00   0.00000000000000E+00   0.00000000000000E+00  -4.21343268580281E-26
      4.21343268580281E-26   0.00000000000000E+00   2.03271036473717E-08   0.00000000000000E+00   0.00000000000000E+00
      0.00000000000000E+00   0.00000000000000E+00  -4.72445603020881E-18   2.17215972995090E-17   1.69971412693002E-17
     -3.40972168015527E-08   3.00000000000000E+02   0.00000000000000E+00   0.00000000000000E+00   0.00000000000000E+00
      0.00000000000000E+00   0.00000000000000E+00   4.72434415975971E-18  -2.17214854290600E-17  -1.69971412693003E-17
      1.37701131541808E-08   3.00000000000000E+02   0.00000000000000E+00   3.00000000000000E+02   2.99999999999966E+02
      3.00000000000000E+02
      0.00000000000000E+00
      0.00000000000000E+00   0.00000000000000E+00   0.00000000000000E+00   0.00000000000000E+00  -1.16289152492233E-25
      1.16289152492233E-25   0.00000000000000E+00   2.03271036473717E-08   0.00000000000000E+00   0.00000000000000E+00
      0.00000000000000E+00   0.00000000000000E+00  -1.64626681701125E-17  -1.55899736058153E-18  -1.80216655306941E-17
     -3.40972168015527E-08   3.00000000000000E+02   0.00000000000000E+00   0.00000000000000E+00   0.00000000000000E+00
      0.00000000000000E+00   0.00000000000000E+00   1.64625320338740E-17   1.55913349681982E-18   1.80216655306939E-17
      1.37701131541808E-08   3.00000000000000E+02   0.00000000000000E+00   3.00000000000000E+02   2.99999999999966E+02
      3.00000000000000E+02
      1.00000000000000E-02
      1.50000000000000E-01   1.50000000000000E-01   0.00000000000000E+00   0.00000000000000E+00  -2.33673616554477E-25
      2.33673616554477E-25   0.00000000000000E+00   2.40876945057082E-08   0.00000000000000E+00  -2.66140999862720E-16
      0.00000000000000E+00   0.00000000000000E+00   1.92313768791702E-18   1.04561995173511E-16   1.06485132861428E-16
     -3.69119059746229E-08   3.00000000000000E+02   0.00000000000000E+00   0.00000000000000E+00   3.13899734759902E-17
      0.00000000000000E+00   0.00000000000000E+00  -1.91657859708913E-18  -1.04568554264343E-16  -1.06485132861432E-16
      1.28242114689146E-08   3.00000000000000E+02   0.00000000000000E+00   3.00000000000000E+02   2.99999999999966E+02
      3.00000000000000E+02
      2.34444444444444E-02
      3.51666666666667E-01   3.51666666666667E-01   0.00000000000000E+00   0.00000000000000E+00  -2.57568605456177E-25
      2.57568605456177E-25   0.00000000000000E+00   2.92801127916451E-08   0.00000000000000E+00  -3.45983299821535E-16
      0.00000000000000E+00   0.00000000000000E+00  -2.54555888561290E-15  -3.28084451341005E-16  -2.87364333695390E-15
     -4.07495967833703E-08   3.00000000000000E+02  -2.53194570248049E-11   0.00000000000000E+00  -9.97212953667798E-16
      0.00000000000000E+00   0.00000000000000E+00   2.59385535148660E-15   2.79787985467280E-16   2.87364333695388E-15
      1.14694839917252E-08   3.00000000000000E+02   0.00000000000000E+00   3.00000000000000E+02   2.99999999999966E+02
      3.00000000000000E+02
      4.15197530864198E-02
      6.22796296296296E-01   6.22796296296296E-01   0.00000000000000E+00   0.00000000000000E+00  -1.99983231924773E-25
      1.99983231924773E-25   0.00000000000000E+00   3.64419482688834E-08   0.00000000000000E+00  -1.01237948967387E-16
      0.00000000000000E+00   0.00000000000000E+00  -6.85043969280676E-16  -2.82443752574192E-17  -7.13288344538095E-16
     -4.60333586138624E-08   3.00000000000000E+02   0.00000000000000E+00   0.00000000000000E+00  -1.99384461153049E-16
      0.00000000000000E+00   0.00000000000000E+00   6.92296462754192E-16   2.09918817839257E-17   7.13288344538117E-16
      9.59141034497893E-09   3.00000000000000E+02   0.00000000000000E+00   3.00000000000000E+02   2.99999999999966E+02
      3.00000000000000E+02
      5.07582441700960E-02
      7.61373662551440E-01   7.61373662551440E-01   0.00000000000000E+00   0.00000000000000E+00  -1.86537688854212E-25
      1.86537688854212E-25   0.00000000000000E+00   4.01364673164875E-08   0.00000000000000E+00  -2.53616717516239E-16
      0.00000000000000E+00   0.00000000000000E+00   1.92739071221324E-14   3.41651699833476E-16   1.96155588219659E-14
     -4.87589923269532E-08   3.00000000000000E+02   0.00000000000000E+00   0.00000000000000E+00  -3.24944355057009E-16
      0.00000000000000E+00   0.00000000000000E+00  -1.92752641965008E-14  -3.40294625465491E-16  -1.96155588219663E-14
      8.62252501046553E-09   3.00000000000000E+02   0.00000000000000E+00   3.00000000000000E+02   2.99999999999966E+02
      3.00000000000000E+02
      6.33841819844536E-02
      9.50762729766804E-01   9.50762729766804E-01   0.00000000000000E+00   0.00000000000000E+00  -1.69938149672951E-25
      1.69938149672951E-25   0.00000000000000E+00   4.52043512335924E-08   0.00000000000000E+00  -5.79248058524743E-17
      0.00000000000000E+00   0.00000000000000E+00   7.41299149705540E-15  -1.01312455991177E-16   7.31167904106422E-15
     -5.24966990097050E-08   3.00000000000000E+02   0.00000000000000E+00   0.00000000000000E+00   3.51683962092112E-17
      0.00000000000000E+00   0.00000000000000E+00  -7.31434946331992E-15   2.67042225576177E-18  -7.31167904106415E-15
      7.29234777611250E-09   3.00000000000000E+02   0.00000000000000E+00   3.00000000000000E+02   2.99999999999966E+02
      3.00000000000000E+02
      8.03590539348677E-02
      1.20538580902301E+00   1.20538580902301E+00   0.00000000000000E+00   0.00000000000000E+00  -6.28440996865799E-27
      6.28440996865799E-27   0.00000000000000E+00   5.20337423935808E-08   0.00000000000000E+00   6.00121862435544E-17
      0.00000000000000E+00   0.00000000000000E+00   9.37332973437376E-15  -2.86052028177986E-16   9.08727770619578E-15
     -5.75281289937308E-08   3.00000000000000E+02   0.00000000000000E+00   0.00000000000000E+00   1.97640573737716E-17
      0.00000000000000E+00   0.00000000000000E+00  -9.14981603001261E-15   6.25383238169961E-17  -9.08727770619562E-15
      5.49438660014977E-09   3.00000000000000E+02   0.00000000000000E+00   3.00000000000000E+02   2.99999999999966E+02
      3.00000000000000E+02
      8.93368750997533E-02
      1.34005312649630E+00   1.34005312649630E+00   0.00000000000000E+00   0.00000000000000E+00  -2.44812337850333E-25
      2.44812337850333E-25   0.00000000000000E+00   5.56505039654332E-08   0.00000000000000E+00  -2.45267195951918E-17
      0.00000000000000E+00   0.00000000000000E+00  -1.24035749862246E-15   4.21460048838326E-17  -1.19821149373863E-15
     -6.01903608386834E-08   3.00000000000000E+02   0.00000000000000E+00   0.00000000000000E+00  -1.45323951277732E-18
      0.00000000000000E+00   0.00000000000000E+00   1.17057759168264E-15   2.76339020559933E-17   1.19821149373863E-15
      4.53985687325024E-09   3.00000000000000E+02   0.00000000000000E+00   3.00000000000000E+02   2.99999999999966E+02
      3.00000000000000E+02
      1.01606564025097E-01
      1.52409846037646E+00   1.52409846037646E+00   0.00000000000000E+00   0.00000000000000E+00  -3.06406339665536E-26
      3.06406339665536E-26   0.00000000000000E+00   6.05973176112428E-08   0.00000000000000E+00  -1.72208882264113E-17
      0.00000000000000E+00   0.00000000000000E+00   1.06352690367375E-14   3.01680542703077E-16   1.09369495794405E-14
     -6.38295834729965E-08   3.00000000000000E+02   2.53194570248049E-11   0.00000000000000E+00   3.89468189424322E-17
      0.00000000000000E+00   0.00000000000000E+00  -1.08776516602977E-14  -5.92979191425790E-17  -1.09369495794403E-14
      3.23226586175390E-09   3.00000000000000E+02   0.00000000000000E+00   3.00000000000000E+02   2.99999999999966E+02
      3.00000000000000E+02
      1.18102479135837E-01
      1.77153718703755E+00   1.77153718703755E+00   0.00000000000000E+00   0.00000000000000E+00  -3.07841820340589E-25
      3.07841820340589E-25   0.00000000000000E+00   6.72500764206670E-08   0.00000000000000E+00  -2.69272070449340E-16
      0.00000000000000E+00   0.00000000000000E+00  -5.92757946475420E-14   4.12690363934144E-16  -5.88631042836078E-14
     -6.87196675502178E-08   3.00000000000000E+02  -6.54704365932839E-11   0.00000000000000E+00  -4.18823627582424E-16
      0.00000000000000E+00   0.00000000000000E+00   5.86940136154865E-14   1.69090668123152E-16   5.88631042836097E-14
      1.46959112955083E-09   3.00000000000000E+02   0.00000000000000E+00   3.00000000000000E+02   2.99999999999966E+02
      3.00000000000001E+02
      1.26973615706502E-01
      1.90460423559752E+00   1.90460423559752E+00   0.00000000000000E+00   0.00000000000000E+00  -2.18840128571092E-25
      2.18840128571092E-25   0.00000000000000E+00   7.08257242020730E-08   0.00000000000000E+00  -2.55704097907319E-17
      0.00000000000000E+00   0.00000000000000E+00  -9.03429260227558E-15  -1.02327020976761E-15  -1.00575628120432E-14
     -7.13454142284959E-08   3.00000000000000E+02  -1.26597285124024E-11   0.00000000000000E+00   0.00000000000000E+00
      0.00000000000000E+00   0.00000000000000E+00   1.00299007379993E-14   2.76620740439838E-17   1.00575628120432E-14
      5.19690026422955E-10   3.00000000000000E+02   0.00000000000000E+00   3.00000000000000E+02   2.99999999999966E+02
      3.00000000000000E+02
      1.38900365984839E-01
      2.08350548977259E+00   2.08350548977259E+00   0.00000000000000E+00   0.00000000000000E+00  -5.13577336584080E-26
      5.13577336584080E-26   0.00000000000000E+00   7.56293658162228E-08   0.00000000000000E+00   3.65291568439027E-18
      0.00000000000000E+00   0.00000000000000E+00   2.95486246235879E-14   4.92103574158744E-17   2.95978349810037E-14
     -7.48700827287651E-08   3.00000000000000E+02   0.00000000000000E+00   0.00000000000000E+00   0.00000000000000E+00
      0.00000000000000E+00   0.00000000000000E+00  -2.95925403983812E-14  -5.29458262134713E-18  -2.95978349810025E-14
     -7.59283087457688E-10   3.00000000000000E+02   0.00000000000000E+00   3.00000000000000E+02   2.99999999999966E+02
      3.00000000000000E+02
      1.54405141346679E-01
      2.31607712020018E+00   2.31607712020018E+00   0.00000000000000E+00   0.00000000000000E+00  -1.89433240357646E-25
      1.89433240357646E-25   0.00000000000000E+00   8.18674042813727E-08   0.00000000000000E+00  -6.36651019279447E-17
      0.00000000000000E+00   0.00000000000000E+00  -2.24723946307151E-14   2.14316406716591E-16  -2.22580782239985E-14
     -7.94426308751994E-08   3.00000000000000E+02   0.00000000000000E+00   0.00000000000000E+00  -2.34262209459704E-16
      0.00000000000000E+00   0.00000000000000E+00   2.22603735243608E-14  -2.29530036143165E-18   2.22580782239993E-14
     -2.42477340617300E-09   3.00000000000000E+02   0.00000000000000E+00   3.00000000000000E+02   2.99999999999966E+02
      3.00000000000000E+02
      1.72149495371895E-01
      2.58224243057842E+00   2.58224243057842E+00   0.00000000000000E+00   0.00000000000000E+00  -6.37319608419029E-26
      6.37319608419029E-26   0.00000000000000E+00   8.89961035576377E-08   0.00000000000000E+00   1.04369019554008E-18
      0.00000000000000E+00   0.00000000000000E+00   5.69697396389798E-14   9.68990836040192E-16   5.79387304750199E-14
     -8.46620096777939E-08   3.00000000000000E+02   0.00000000000000E+00   0.00000000000000E+00   0.00000000000000E+00
      0.00000000000000E+00   0.00000000000000E+00  -5.78660846937730E-14  -7.26457812456283E-17  -5.79387304750186E-14
     -4.33409387984414E-09   3.00000000000000E+02   0.00000000000000E+00   3.00000000000000E+02   2.99999999999966E+02
      3.00000000000000E+02
      1.81376559465007E-01
      2.72064839197511E+00   2.72064839197511E+00   0.00000000000000E+00   0.00000000000000E+00  -9.65539420079599E-26
      9.65539420079599E-26   0.00000000000000E+00   9.26966845325427E-08   0.00000000000000E+00  -5.74029607547042E-18
      0.00000000000000E+00   0.00000000000000E+00  -3.74076612246815E-14   5.21642054281587E-16  -3.68860191703999E-14
     -8.73685782062879E-08   3.00000000000000E+02   0.00000000000000E+00   0.00000000000000E+00   0.00000000000000E+00
      0.00000000000000E+00   0.00000000000000E+00   3.69468277134827E-14  -6.08085430822874E-17   3.68860191704004E-14
     -5.32810632625496E-09   3.00000000000000E+02   0.00000000000000E+00   3.00000000000000E+02   2.99999999999966E+02
      3.00000000000000E+02
      1.93986880392261E-01
      2.90980320588391E+00   2.90980320588391E+00   0.00000000000000E+00   0.00000000000000E+00  -1.48120779720802E-25
      1.48120779720802E-25   0.00000000000000E+00   9.77455629837708E-08   0.00000000000000E+00  -1.40898176397910E-17
      0.00000000000000E+00   0.00000000000000E+00   2.69047349880514E-14   1.34309073619951E-15   2.82478257242509E-14
     -9.10578528618343E-08   3.00000000000000E+02   0.00000000000000E+00   0.00000000000000E+00   4.24345937730978E-17
      0.00000000000000E+00   0.00000000000000E+00  -2.83013445653111E-14   5.35188410609070E-17  -2.82478257242502E-14
     -6.68771012193658E-09   3.00000000000000E+02   0.00000000000000E+00   3.00000000000000E+02   2.99999999999966E+02
      3.00000000000000E+02
      2.10380297597690E-01
      3.15570446396536E+00   3.15570446396536E+00   0.00000000000000E+00   0.00000000000000E+00  -2.00260578285145E-25
      2.00260578285145E-25   0.00000000000000E+00   1.04292849932996E-07   0.00000000000000E+00  -4.90534391903836E-17
      0.00000000000000E+00   0.00000000000000E+00  -9.98565327881731E-15  -9.18040464483606E-16  -1.09036937433009E-14
     -9.58359361528620E-08   3.00000000000000E+02  -1.49181823334706E-12   0.00000000000000E+00   0.00000000000000E+00
      0.00000000000000E+00   0.00000000000000E+00   1.09231372715708E-14  -1.94435282697499E-17   1.09036937433011E-14
     -8.45691378013388E-09   3.00000000000000E+02   0.00000000000000E+00   3.00000000000000E+02   2.99999999999966E+02
      3.00000000000000E+02
      2.30963143644508E-01
      3.46444715466761E+00   3.46444715466761E+00   0.00000000000000E+00   0.00000000000000E+00  -2.15576943576437E-25
      2.15576943576437E-25   0.00000000000000E+00   1.12490936292295E-07   0.00000000000000E+00  -3.96602274305229E-17
      0.00000000000000E+00   0.00000000000000E+00  -3.80800435424439E-15  -1.49062641759404E-16  -3.95706699600379E-15
     -1.01810318199459E-07   3.00000000000000E+02   0.00000000000000E+00   0.00000000000000E+00   0.00000000000000E+00
      0.00000000000000E+00   0.00000000000000E+00   3.82824066956197E-15   1.28826326441971E-16   3.95706699600394E-15
     -1.06806180928353E-08   3.00000000000000E+02   0.00000000000000E+00   3.00000000000000E+02   2.99999999999966E+02
      3.00000000000000E+02
      2.41483264957325E-01
      3.62224897435988E+00   3.62224897435988E+00   0.00000000000000E+00   0.00000000000000E+00  -2.03575389386370E-25
      2.03575389386370E-25   0.00000000000000E+00   1.16673049794950E-07   0.00000000000000E+00  -3.49114370408156E-16
      0.00000000000000E+00   0.00000000000000E+00  -5.78974826826219E-13  -1.96344377362867E-15  -5.80938270599848E-13
     -1.04854985351741E-07   3.00000000000000E+02   3.65892705071800E-10   0.00000000000000E+00  -5.87399411064594E-16
      0.00000000000000E+00   0.00000000000000E+00   5.78818192445333E-13   2.12007815449616E-15   5.80938270599830E-13
     -1.18180644432082E-08   3.00000000000000E+02   1.39130054115248E-10   2.99999999999996E+02   2.99999999999966E+02
      3.00000000000000E+02
      2.56328325032079E-01
      3.84492487548119E+00   3.84492487548119E+00   0.00000000000000E+00   0.00000000000000E+00  -2.20895588413067E-25
      2.20895588413067E-25   0.00000000000000E+00   1.22566229176040E-07   0.00000000000000E+00  -3.42852229234915E-16
      0.00000000000000E+00   0.00000000000000E+00   2.63555160291591E-13   5.14613828073286E-16   2.64069774119665E-13
     -1.09142203088747E-07   3.00000000000000E+02   1.23721419790266E-09   0.00000000000000E+00  -7.44058630541989E-16
      0.00000000000000E+00   0.00000000000000E+00  -2.63496923025995E-13  -5.72851093658668E-16  -2.64069774119654E-13
     -1.34240260872935E-08   3.00000000000000E+02   3.25155795965461E-10   2.99999999999987E+02   2.99999999999966E+02
      3.00000000000000E+02
      2.76616573800909E-01
      4.14924860701364E+00   4.14924860701364E+00   0.00000000000000E+00   0.00000000000000E+00  -1.99100869541454E-25
      1.99100869541454E-25   0.00000000000000E+00   1.30606748748238E-07   0.00000000000000E+00  -3.51201750799236E-16
      0.00000000000000E+00   0.00000000000000E+00   1.39457746193509E-12  -9.81206745468658E-16   1.39359625518962E-12
     -1.14986401889926E-07   3.00000000000000E+02   3.00254324312125E-09   0.00000000000000E+00  -5.89433946382482E-16
      0.00000000000000E+00   0.00000000000000E+00  -1.39457684541457E-12   9.80590224958334E-16  -1.39359625518961E-12
     -1.56203468583118E-08   3.00000000000000E+02   9.48117834964710E-10   2.99999999999965E+02   2.99999999999964E+02
      3.00000000000000E+02
      2.86264763215420E-01
      4.29397144823130E+00   4.29397144823130E+00   0.00000000000000E+00   0.00000000000000E+00  -2.29169249801233E-25
      2.29169249801233E-25   0.00000000000000E+00   1.34426291163647E-07   0.00000000000000E+00  -3.29284256692894E-16
      0.00000000000000E+00   0.00000000000000E+00   1.06693024701346E-12   1.10028510650481E-16   1.06704027552411E-12
     -1.17760928997966E-07   3.00000000000000E+02   0.00000000000000E+00   0.00000000000000E+00  -7.35048545562769E-16
      0.00000000000000E+00   0.00000000000000E+00  -1.06693024456238E-12  -1.10030961686534E-16  -1.06704027552407E-12
     -1.66653621656805E-08   3.00000000000000E+02   0.00000000000000E+00   3.00000000000000E+02   2.99999999999966E+02
      3.00000000000000E+02
      2.99879430500340E-01
      4.49819145750510E+00   4.49819145750510E+00   0.00000000000000E+00   0.00000000000000E+00   2.83579887334331E-23
     -2.83579887334331E-23   0.00000000000000E+00   1.39812727547778E-07   0.00000000000000E+00  -3.63204188047947E-16
      0.00000000000000E+00   0.00000000000000E+00   3.71368292815932E-13   4.42280944479737E-14   4.15596387263906E-13
     -1.21672199383203E-07   3.00000000000000E+02  -4.72053359495803E-11   0.00000000000000E+00  -6.14720313904807E-16
      0.00000000000000E+00   0.00000000000000E+00  -3.71367269768445E-13  -4.42291174954737E-14  -4.15596387263918E-13
     -1.81405281645747E-08   3.00000000000000E+02   0.00000000000000E+00   3.00000000000000E+02   2.99999999999966E+02
      3.00000000000001E+02
      3.19091238780172E-01
      4.78636858170258E+00   4.78636858170258E+00   0.00000000000000E+00   0.00000000000000E+00  -1.82047229014901E-25
      1.82047229014901E-25   0.00000000000000E+00   1.47407888876958E-07   0.00000000000000E+00  -2.74490521427040E-16
      0.00000000000000E+00   0.00000000000000E+00  -4.93097588483279E-14   4.32495638789144E-16  -4.88772632095387E-14
     -1.27184776434803E-07   3.00000000000000E+02   0.00000000000000E+00   0.00000000000000E+00  -3.39186102282227E-16
      0.00000000000000E+00   0.00000000000000E+00   4.93097633547807E-14  -4.32500145242465E-16   4.88772632095383E-14
     -2.02231124421551E-08   3.00000000000000E+02   0.00000000000000E+00   3.00000000000000E+02   2.99999999999966E+02
      3.00000000000000E+02
      3.29081379085685E-01
      4.93622068628527E+00   4.93622068628527E+00   0.00000000000000E+00   0.00000000000000E+00  -2.53123935041894E-25
      2.53123935041894E-25   0.00000000000000E+00   1.51354294357461E-07   0.00000000000000E+00  -3.28762411595124E-16
      0.00000000000000E+00   0.00000000000000E+00  -8.57567554536075E-13  -7.86084711025770E-16  -8.58353639247101E-13
     -1.30047833944273E-07   3.00000000000000E+02   0.00000000000000E+00   0.00000000000000E+00  -4.65327291991299E-16
      0.00000000000000E+00   0.00000000000000E+00   8.57567554205103E-13   7.86085041990714E-16   8.58353639247094E-13
     -2.13064604131880E-08   3.00000000000000E+02   0.00000000000000E+00   3.00000000000000E+02   2.99999999999966E+02
      3.00000000000000E+02
      3.43178577072352E-01
      5.14767865608528E+00   5.14767865608528E+00   0.00000000000000E+00   0.00000000000000E+00  -2.04247444648624E-25
      2.04247444648624E-25   0.00000000000000E+00   1.56919723020830E-07   0.00000000000000E+00  -5.21845097770038E-19
      0.00000000000000E+00   0.00000000000000E+00   1.30783333421166E-13  -4.81784879633567E-17   1.30735154933203E-13
     -1.34084109762269E-07   3.00000000000000E+02   0.00000000000000E+00   0.00000000000000E+00   0.00000000000000E+00
      0.00000000000000E+00   0.00000000000000E+00  -1.30783333569882E-13   4.81786366830832E-17  -1.30735154933199E-13
     -2.28356132585602E-08   3.00000000000000E+02   0.00000000000000E+00   3.00000000000000E+02   2.99999999999966E+02
      3.00000000000000E+02
      3.62758018720502E-01
      5.44137028080753E+00   5.44137028080753E+00   0.00000000000000E+00   0.00000000000000E+00  -2.04243094066719E-25
      2.04243094066719E-25   0.00000000000000E+00   1.64644070638075E-07   0.00000000000000E+00  -3.88774597838679E-16
      0.00000000000000E+00   0.00000000000000E+00  -6.42033620378092E-14  -1.17441404033165E-15  -6.53777760781408E-14
     -1.39683874038449E-07   3.00000000000000E+02   3.28274878876789E-13   0.00000000000000E+00  -5.09796421082285E-16
      0.00000000000000E+00   0.00000000000000E+00   6.42033606911816E-14   1.17441538695357E-15   6.53777760781352E-14
     -2.49601965996262E-08   3.00000000000000E+02   0.00000000000000E+00   3.00000000000000E+02   2.99999999999966E+02
      3.00000000000000E+02
      3.73287407340173E-01
      5.59931111010260E+00   5.59931111010260E+00   0.00000000000000E+00   0.00000000000000E+00  -2.53371262759014E-25
      2.53371262759014E-25   0.00000000000000E+00   1.68796807802396E-07   0.00000000000000E+00  -3.62160497852407E-16
      0.00000000000000E+00   0.00000000000000E+00   6.68747024842746E-13  -1.37991074408787E-15   6.67367114098659E-13
     -1.42693723122389E-07   3.00000000000000E+02   0.00000000000000E+00   0.00000000000000E+00  -6.30996596447913E-16
      0.00000000000000E+00   0.00000000000000E+00  -6.68747024619673E-13   1.37991052094870E-15  -6.67367114098724E-13
     -2.61030846800074E-08   3.00000000000000E+02   0.00000000000000E+00   3.00000000000000E+02   2.99999999999966E+02
      3.00000000000000E+02
      3.88145544614599E-01
      5.82218316921898E+00   5.82218316921898E+00   0.00000000000000E+00   0.00000000000000E+00  -2.09312206063241E-25
      2.09312206063241E-25   0.00000000000000E+00   1.74663883012279E-07   0.00000000000000E+00   3.13107058662023E-18
      0.00000000000000E+00   0.00000000000000E+00   4.04817955707358E-13   4.22913171223272E-16   4.05240868878581E-13
     -1.46947691421030E-07   3.00000000000000E+02   0.00000000000000E+00   0.00000000000000E+00   0.00000000000000E+00
      0.00000000000000E+00   0.00000000000000E+00  -4.04817955884837E-13  -4.22912993727655E-16  -4.05240868878565E-13
     -2.77161915912480E-08   3.00000000000000E+02   0.00000000000000E+00   3.00000000000000E+02   2.99999999999966E+02
      3.00000000000000E+02
      4.08781846384634E-01
      6.13172769576951E+00   6.13172769576951E+00   0.00000000000000E+00   0.00000000000000E+00  -4.27379425254124E-26
      4.27379425254124E-26   0.00000000000000E+00   1.82886817638339E-07   0.00000000000000E+00   0.00000000000000E+00
      0.00000000000000E+00   0.00000000000000E+00  -1.06153966641251E-13   2.02050813873603E-18  -1.06151946133113E-13
     -1.52929548836290E-07   3.00000000000000E+02   0.00000000000000E+00   0.00000000000000E+00   0.00000000000000E+00
      0.00000000000000E+00   0.00000000000000E+00   1.06153966564364E-13  -2.02043125244969E-18   1.06151946133111E-13
     -2.99572688020484E-08   3.00000000000000E+02   0.00000000000000E+00   3.00000000000000E+02   2.99999999999966E+02
      3.00000000000000E+02
      4.19879590892075E-01
      6.29819386338113E+00   6.29819386338113E+00   0.00000000000000E+00   0.00000000000000E+00  -1.47650084255969E-25
      1.47650084255969E-25   0.00000000000000E+00   1.87393453718637E-07   0.00000000000000E+00  -3.95036739011919E-16
      0.00000000000000E+00   0.00000000000000E+00   6.57899023179939E-13  -6.58137368068246E-16   6.57240885811871E-13
     -1.56230695462225E-07   3.00000000000000E+02   0.00000000000000E+00   0.00000000000000E+00  -6.80697387784898E-16
      0.00000000000000E+00   0.00000000000000E+00  -6.57899023269332E-13   6.58137457502647E-16  -6.57240885811830E-13
     -3.11627582564117E-08   3.00000000000000E+02   0.00000000000000E+00   3.00000000000000E+02   2.99999999999966E+02
      3.00000000000000E+02
      4.35539741474798E-01
      6.53309612212197E+00   6.53309612212197E+00   0.00000000000000E+00   0.00000000000000E+00  -2.48784801985354E-25
      2.48784801985354E-25   0.00000000000000E+00   1.93866586150141E-07   0.00000000000000E+00  -1.32548654833590E-16
      0.00000000000000E+00   0.00000000000000E+00   6.07687692843858E-14  -1.72536578564715E-16   6.05962327058211E-14
     -1.61002432671264E-07   3.00000000000000E+02   0.00000000000000E+00   0.00000000000000E+00  -2.06650658716935E-16
      0.00000000000000E+00   0.00000000000000E+00  -6.07694518060212E-14   1.73219100185205E-16  -6.05962327058360E-14
     -3.28641534788766E-08   3.00000000000000E+02   0.00000000000000E+00   3.00000000000000E+02   2.99999999999966E+02
      3.00000000000000E+02
      4.44239825131866E-01
      6.66359737697799E+00   6.66359737697799E+00   0.00000000000000E+00   0.00000000000000E+00  -2.32678889578528E-25
      2.32678889578528E-25   0.00000000000000E+00   1.97504701819503E-07   0.00000000000000E+00  -3.88774597838679E-16
      0.00000000000000E+00   0.00000000000000E+00   4.58775535467412E-14   1.08119427394942E-16   4.59856729741362E-14
     -1.63695178309122E-07   3.00000000000000E+02   0.00000000000000E+00   0.00000000000000E+00   3.48777483066557E-18
      0.00000000000000E+00   0.00000000000000E+00  -4.58775534231156E-14  -1.08119551035868E-16  -4.59856729741515E-14
     -3.38095235103800E-08   3.00000000000000E+02   0.00000000000000E+00   3.00000000000000E+02   2.99999999999966E+02
      3.00000000000000E+02
      4.56516609847951E-01
      6.84774914771927E+00   6.84774914771927E+00   0.00000000000000E+00   0.00000000000000E+00   1.56796902605088E-24
     -1.56796902605088E-24   0.00000000000000E+00   2.02671128758295E-07   0.00000000000000E+00  -4.07039176260630E-16
      0.00000000000000E+00   0.00000000000000E+00  -3.72338389353939E-13   5.05529406712624E-15  -3.67283095286813E-13
     -1.67527410855774E-07   3.00000000000000E+02   0.00000000000000E+00   0.00000000000000E+00  -6.03094397802589E-16
      0.00000000000000E+00   0.00000000000000E+00   3.72339151290961E-13  -5.05605600415857E-15   3.67283095286803E-13
     -3.51437179025216E-08   3.00000000000000E+02   0.00000000000000E+00   3.00000000000000E+02   2.99999999999966E+02
      3.00000000000000E+02
      4.73840517169538E-01
      7.10760775754307E+00   7.10760775754307E+00   0.00000000000000E+00   0.00000000000000E+00  -2.34635518023556E-25
      2.34635518023556E-25   0.00000000000000E+00   2.10003611863288E-07   0.00000000000000E+00  -4.20085303704881E-16