DF-ISE text

Info {
  version   = 1.0
  type      = xyplot
  datasets  = [
    "time"
    "v(vbus)" "v(switch)" "v(collector)" "v(gate_driver)" "v(gate)"
    "i(DUT,collector)" "i(DUT,gate)" "i(Dfw,switch)" "i(Lload,vbus)" "i(Lsigma,collector)"
    "i(Vbus,vbus)" "i(Vgate,gate_driver)" "i(Rge,gate)" ]
  functions = [
    Time
    Voltage Voltage Voltage Voltage Voltage
    Current Current Current Current Current
    Current Current Current ]
}

Data {
      0.00000000000000E+00
      0.00000000000000E+00   0.00000000000000E+00   0.00000000000000E+00   0.00000000000000E+00  -2.21954018079749E-18
     -4.03545821099235E-23   0.00000000000000E+00   4.98088786862535E-01   4.98088786862832E-01  -2.97317472834252E-13
     -2.97290893813451E-13   1.00888190036250E-19   2.21954018079749E-21
      0.00000000000000E+00
      0.00000000000000E+00   0.00000000000000E+00   0.00000000000000E+00   0.00000000000000E+00  -4.20350156684605E-20
      4.20586901832271E-23   0.00000000000000E+00   4.98088786862535E-01   4.98088786862535E-01  -1.84756745289276E-24
      2.91291061292468E-17   1.91068253038455E-21   4.20350156684605E-23
      1.00000000000000E-05
      2.50000000000000E-03   2.50000000000000E-03   2.50000000000000E-03   0.00000000000000E+00  -3.91509155998890E-17
     -2.09612817223248E-11   0.00000000000000E+00  -0.00000000000000E+00  -2.09612809552824E-11   2.09612809552824E-11
      2.09612809552824E-11   1.77958707272237E-18   3.91509155998890E-20
      2.47777777777778E-05
      6.19444444444445E-03   6.19444444444445E-03   6.19444444444445E-03   0.00000000000000E+00  -2.51088552273233E-17
     -5.39523155587585E-11   0.00000000000000E+00  -0.00000000000000E+00  -5.39523124671748E-11   5.39523124671748E-11
      5.39523124671748E-11   1.14131160124173E-18   2.51088552273233E-20
      4.67802469135802E-05
      1.16950617283951E-02   1.16950617283951E-02   1.16950617283951E-02   0.00000000000000E+00   6.97487323693284E-17
     -1.07459877019501E-10   0.00000000000000E+00  -0.00000000000000E+00  -1.07459872440742E-10   1.07459872440742E-10
      1.07459872440742E-10  -3.17039692587791E-18  -6.97487323693284E-20
      7.95394787379973E-05
      1.98848696844993E-02   1.98848696844993E-02   1.98848696844993E-02   0.00000000000000E+00   2.11551329344755E-15
     -1.96301818827736E-10   0.00000000000000E+00  -0.00000000000000E+00  -1.96301482849690E-10   1.96301482849690E-10
      1.96301482849690E-10  -9.61596951567088E-17  -2.11551329344755E-18
      1.28314335009907E-04
      3.20785837524768E-02   3.20785837524768E-02   3.20785837524768E-02   0.00000000000000E+00   2.73014578793526E-19
     -3.45524034316529E-10   0.00000000000000E+00  -0.00000000000000E+00  -3.45524034315700E-10   3.45524034315700E-10
      3.45524034315700E-10  -1.24097535814386E-20  -2.73014578793526E-22
      2.00392733722840E-04
      5.00981834307101E-02   5.00981834307101E-02   5.00981834307101E-02   0.00000000000000E+00   4.02947802589509E-17
     -5.87066671374910E-10   0.00000000000000E+00  -0.00000000000000E+00  -5.87066671180187E-10   5.87066671180187E-10
      5.87066671180187E-10  -1.83158092086084E-18  -4.02947802589509E-20
      3.06908589598620E-04
      7.67271473996549E-02   7.67271473996549E-02   7.67271473996549E-02   0.00000000000000E+00   1.02970162515974E-15
     -9.38066179590694E-10   0.00000000000000E+00  -0.00000000000000E+00  -9.38066117480383E-10   9.38066117480383E-10
      9.38066117480383E-10  -4.68046193254429E-17  -1.02970162515974E-18
      4.64315354392827E-04
      1.16078838598207E-01   1.16078838598207E-01   1.16078838598207E-01   0.00000000000000E+00  -1.36020820958791E-15
     -1.36661177216819E-09   0.00000000000000E+00  -0.00000000000000E+00  -1.36661011433759E-09   1.36661011433759E-09
      1.36661011433759E-09   6.18276458903580E-17   1.36020820958791E-18
      6.96927573477600E-04
      1.74231893369400E-01   1.74231893369400E-01   1.74231893369400E-01   0.00000000000000E+00  -2.36040525663689E-19
     -1.83943031262189E-09   0.00000000000000E+00  -0.00000000000000E+00  -1.83943031262188E-09   1.83943031262188E-09
      1.83943031262188E-09   1.07291148029116E-20   2.36040525663689E-22
      1.03809216146860E-03
      2.59523040367150E-01   2.59523040367150E-01   2.59523040367150E-01   0.00000000000000E+00  -2.44978935043134E-20
     -2.40179954371401E-09   0.00000000000000E+00  -0.00000000000000E+00  -2.40179954371400E-09   2.40179954371400E-09
      2.40179954371400E-09   1.11354061383706E-21   2.44978935043134E-23
      1.53846689052207E-03
      3.84616722630517E-01   3.84616722630517E-01   3.84616722630517E-01   0.00000000000000E+00   3.99290468342214E-21
     -3.23984312352572E-09   0.00000000000000E+00  -0.00000000000000E+00  -3.23984312352568E-09   3.23984312352568E-09
      3.23984312352568E-09  -1.81495667430713E-22  -3.99290468342214E-24
      2.26679010725545E-03
      5.66697526813862E-01   5.66697526813862E-01   5.66697526813862E-01   0.00000000000000E+00   1.53751595670295E-18
     -4.31562343848366E-09   0.00000000000000E+00  -0.00000000000000E+00  -4.31562343848058E-09   4.31562343848058E-09
      4.31562343848058E-09  -6.98870889410134E-20  -1.53751595670295E-21
      3.31072005123996E-03
      8.27680012809989E-01   8.27680012809989E-01   8.27680012809989E-01   0.00000000000000E+00   1.56871630334185E-19
     -5.95466549307442E-09   0.00000000000000E+00  -0.00000000000000E+00  -5.95466548599699E-09   5.95466548599699E-09
      5.95466548599699E-09  -7.13052865153163E-21  -1.56871630334185E-22
      4.81861885921758E-03
      1.20465471480440E+00   1.20465471480440E+00   1.20465471480440E+00   0.00000000000000E+00   1.86264917683380E-16
     -8.28881374933476E-09   0.00000000000000E+00  -0.00000000000000E+00  -8.28881338431401E-09   8.28881338431401E-09
      8.28881338431401E-09  -8.46658716742613E-18  -1.86264917683380E-19
      6.99669491518527E-03
      1.74917372879632E+00   1.74917372879632E+00   1.74917372879632E+00   0.00000000000000E+00  -5.15297858612372E-20
     -1.15605370523852E-08   0.00000000000000E+00  -0.00000000000000E+00  -1.15605370523735E-08   1.15605370523735E-08
      1.15605370523735E-08   2.34226299369631E-21   5.15297858612372E-23
      1.01428047738053E-02
      2.53570119345131E+00   2.53570119345131E+00   2.53570119345131E+00   0.00000000000000E+00   8.25713464992602E-18
     -1.49723142462641E-08   0.00000000000000E+00  -0.00000000000000E+00  -1.49723142166171E-08   1.49723142166171E-08
      1.49723142166171E-08  -3.75324302269339E-19  -8.25713464992602E-21
      1.47221424569077E-02
      3.68053561422692E+00   3.68053561422692E+00   3.68053561422692E+00   0.00000000000000E+00   2.45706966052642E-15
     -1.92011632350945E-08   0.00000000000000E+00  -0.00000000000000E+00  -1.92002581770265E-08   1.92002581770265E-08
      1.92002581770265E-08  -1.11684984569381E-16  -2.45706966052642E-18
      1.80294418947039E-02
      4.50736047367597E+00   4.50736047367597E+00   4.50736047367597E+00   0.00000000000000E+00  -5.74499340458392E-18
     -2.18329829341959E-08   0.00000000000000E+00  -0.00000000000000E+00  -2.18329829025609E-08   2.18329829025609E-08
      2.18329829025609E-08   2.61136063844716E-19   5.74499340458392E-21
      2.28433999652739E-02
      5.71084999131847E+00   5.71084999131847E+00   5.71084999131847E+00   0.00000000000000E+00   1.15398373785096E-22
     -2.55644764597677E-08   0.00000000000000E+00  -0.00000000000000E+00  -2.55644764597695E-08   2.55644764597695E-08
      2.55644764597695E-08  -5.24538062833336E-24  -1.15398373785096E-25
      2.98503833791036E-02
      7.46259584477589E+00   7.46259584477589E+00   7.46259584477589E+00   0.00000000000000E+00   3.28971910149808E-19
     -3.84710697401643E-08   0.00000000000000E+00  -0.00000000000000E+00  -3.84710697400644E-08   3.84710697400644E-08
      3.84710697400644E-08  -1.49532686431786E-20  -3.28971910149808E-22
      3.96601601584652E-02
      9.91504003961629E+00   9.91504003961629E+00   9.91504003961629E+00   0.00000000000000E+00  -1.51448244228566E-16
     -1.48940437510637E-07   0.00000000000000E+00  -0.00000000000000E+00  -1.48940437504092E-07   1.48940437504092E-07
      1.48940437504092E-07   6.88401110129864E-18   1.51448244228566E-19
      5.37208402088834E-02
      1.34302100522209E+01   1.34302100522209E+01   1.34302100522209E+01   0.00000000000000E+00  -1.86855758790406E-17
     -2.25455138165042E-07   0.00000000000000E+00  -0.00000000000000E+00  -2.25455138146822E-07   2.25455138146822E-07
      2.25455138146822E-07   8.49344358138224E-19   1.86855758790406E-20
      6.34070864658382E-02
      1.58517716164596E+01   1.58517716164596E+01   1.58517716164596E+01   0.00000000000000E+00   2.72626203703686E-16
     -3.00122488169666E-07   0.00000000000000E+00  -0.00000000000000E+00  -3.00122488168603E-07   3.00122488168603E-07
      3.00122488168603E-07  -1.23921001683488E-17  -2.72626203703686E-19
      7.01874588457066E-02
      1.75468647114266E+01   1.75468647114266E+01   1.75468647114266E+01   0.00000000000000E+00  -1.51680323821653E-17
     -3.56717068124216E-07   0.00000000000000E+00  -0.00000000000000E+00  -3.56717068123508E-07   3.56717068123508E-07
      3.56717068123508E-07   6.89456017371579E-19   1.51680323821653E-20
      7.99059925901845E-02
      1.99764981475461E+01   1.99764981475461E+01   1.99764981475461E+01   0.00000000000000E+00  -2.27884458247736E-17
     -4.18822019762170E-07   0.00000000000000E+00  -0.00000000000000E+00  -4.18822019762156E-07   4.18822019762156E-07
      4.18822019762156E-07   1.03583844658065E-18   2.27884458247736E-20
      8.68169499195911E-02
      2.17042374798978E+01   2.17042374798978E+01   2.17042374798978E+01   0.00000000000000E+00  -9.40290256472388E-17
     -4.49790487758885E-07   0.00000000000000E+00  -0.00000000000000E+00  -4.49790487753283E-07   4.49790487753283E-07
      4.49790487753283E-07   4.27404662032841E-18   9.40290256472388E-20
      9.67226554250738E-02
      2.41806638562685E+01   2.41806638562685E+01   2.41806638562685E+01   0.00000000000000E+00  -1.65365802686059E-17
     -4.77520384610201E-07   0.00000000000000E+00  -0.00000000000000E+00  -4.77520384610283E-07   4.77520384610283E-07
      4.77520384610283E-07   7.51662739482147E-19   1.65365802686059E-20
      1.10480579738244E-01
      2.76201449345611E+01   2.76201449345611E+01   2.76201449345611E+01   0.00000000000000E+00   7.47863987230606E-17
     -5.02535839906719E-07   0.00000000000000E+00  -0.00000000000000E+00  -5.02535838756580E-07   5.02535838756580E-07
      5.02535838756580E-07  -3.39938176013885E-18  -7.47863987230606E-20
      1.20263992583166E-01
      3.00659981457914E+01   3.00659981457914E+01   3.00659981457914E+01   0.00000000000000E+00   3.39498608875613E-17
     -5.14457537331519E-07   0.00000000000000E+00  -0.00000000000000E+00  -5.14457537331369E-07   5.14457537331369E-07
      5.14457537331369E-07  -1.54317549488908E-18  -3.39498608875613E-20
      1.34286884327553E-01
      3.35717210818882E+01   3.35717210818882E+01   3.35717210818882E+01   0.00000000000000E+00  -3.12152168524286E-19
     -5.27354551876628E-07   0.00000000000000E+00  -0.00000000000000E+00  -5.27354551876633E-07   5.27354551876633E-07
      5.27354551876633E-07   1.41887349329124E-20   3.12152168524286E-22
      1.44336623411030E-01
      3.60841558527575E+01   3.60841558527575E+01   3.60841558527575E+01   0.00000000000000E+00  -2.34093125674572E-19
     -5.36127346367563E-07   0.00000000000000E+00  -0.00000000000000E+00  -5.36127346367510E-07   5.36127346367510E-07
      5.36127346367510E-07   1.06405966215726E-20   2.34093125674572E-22
      1.58741249430681E-01
      3.96853123576702E+01   3.96853123576702E+01   3.96853123576702E+01   0.00000000000000E+00   4.42717074339923E-17
     -5.58744397640489E-07   0.00000000000000E+00  -0.00000000000000E+00  -5.58744385198303E-07   5.58744385198303E-07
      5.58744385198303E-07  -2.01235033790873E-18  -4.42717074339923E-20
      1.79547931459066E-01
      4.48869828647664E+01   4.48869828647664E+01   4.48869828647664E+01   0.00000000000000E+00   8.21480450003292E-19
     -5.78040048877506E-07   0.00000000000000E+00  -0.00000000000000E+00  -5.78040048877087E-07   5.78040048877087E-07
      5.78040048877087E-07  -3.73400204546993E-20  -8.21480450003292E-22
      2.09370842366417E-01
      5.23427105916043E+01   5.23427105916043E+01   5.23427105916043E+01   0.00000000000000E+00  -5.21582644853112E-18
     -6.10217716085241E-07   0.00000000000000E+00  -0.00000000000000E+00  -6.10217716083038E-07   6.10217716083038E-07
      6.10217716083038E-07   2.37083020387815E-19   5.21582644853112E-21
      2.51785648990206E-01
      6.29464122475515E+01   6.29464122475515E+01   6.29464122475515E+01   0.00000000000000E+00  -2.39750091757888E-16
     -6.41692282895657E-07   0.00000000000000E+00  -0.00000000000000E+00  -6.41692282891300E-07   6.41692282891300E-07
      6.41692282891300E-07   1.08977314435406E-17   2.39750091757888E-19
      3.01785648990206E-01
      7.54464122475515E+01   7.54464122475515E+01   7.54464122475515E+01   0.00000000000000E+00  -2.57698930382487E-19
     -6.75445165711623E-07   0.00000000000000E+00  -0.00000000000000E+00  -6.75445165710573E-07   6.75445165710573E-07
      6.75445165710573E-07   1.17135877446770E-20   2.57698930382487E-22
      3.51785648990206E-01
      8.79464122475515E+01   8.79464122475515E+01   8.79464122475515E+01   0.00000000000000E+00   1.15543007345060E-16
     -7.02602061896854E-07   0.00000000000000E+00  -0.00000000000000E+00  -7.02602061898571E-07   7.02602061898571E-07
      7.02602061898571E-07  -5.25195487932098E-18  -1.15543007345060E-19
      4.01785648990206E-01
      1.00446412247551E+02   1.00446412247551E+02   1.00446412247551E+02   0.00000000000000E+00   3.23220018088741E-18
     -7.90039409064561E-07   0.00000000000000E+00  -0.00000000000000E+00  -7.90039409064221E-07   7.90039409064221E-07
      7.90039409064221E-07  -1.46918190040333E-19  -3.23220018088741E-21
      4.26785648990206E-01
      1.06696412247551E+02   1.06696412247551E+02   1.06696412247551E+02   0.00000000000000E+00   2.37509383913409E-19
     -8.56230811675403E-07   0.00000000000000E+00  -0.00000000000000E+00  -8.56230811679549E-07   8.56230811679549E-07
      8.56230811679549E-07  -1.07958810869773E-20  -2.37509383913409E-22
      4.35605093434650E-01
      1.08901273358663E+02   1.08901273358663E+02   1.08901273358663E+02   0.00000000000000E+00   8.94343543785785E-18
     -8.73448955579654E-07   0.00000000000000E+00  -0.00000000000000E+00  -8.73448955545523E-07   8.73448955545523E-07
      8.73448955545523E-07  -4.06519792629843E-19  -8.94343543785785E-21
      4.48148303311193E-01
      1.12037075827798E+02   1.12037075827798E+02   1.12037075827798E+02   0.00000000000000E+00   8.44139693617043E-18
     -8.97739354603177E-07   0.00000000000000E+00  -0.00000000000000E+00  -8.97739354598884E-07   8.97739354598884E-07
      8.97739354598884E-07  -3.83699860735242E-19  -8.44139693617043E-21
      4.65708797138354E-01
      1.16427199284588E+02   1.16427199284588E+02   1.16427199284588E+02   0.00000000000000E+00   7.79723037234774E-21
     -9.43909183905096E-07   0.00000000000000E+00  -0.00000000000000E+00  -9.43909183903732E-07   9.43909183903732E-07
      9.43909183903732E-07  -3.54419562363684E-22  -7.79723037234774E-24
      4.78001142817366E-01
      1.19500285704342E+02   1.19500285704342E+02   1.19500285704342E+02   0.00000000000000E+00   2.43897021883303E-19
     -9.70612002108699E-07   0.00000000000000E+00  -0.00000000000000E+00  -9.70612002108299E-07   9.70612002108299E-07
      9.70612002108299E-07  -1.10862282674192E-20  -2.43897021883303E-22
      4.95483590005295E-01
      1.23870897501324E+02   1.23870897501324E+02   1.23870897501324E+02   0.00000000000000E+00   4.38243717157994E-18
     -1.00948764801369E-06   0.00000000000000E+00  -0.00000000000000E+00  -1.00948764801498E-06   1.00948764801498E-06
      1.00948764801498E-06  -1.99201689617269E-19  -4.38243717157994E-21
      5.07915552450044E-01
      1.26978888112511E+02   1.26978888112511E+02   1.26978888112511E+02   0.00000000000000E+00   1.83816494952326E-20
     -1.02641941446756E-06   0.00000000000000E+00  -0.00000000000000E+00  -1.02641941446619E-06   1.02641941446619E-06
      1.02641941446619E-06  -8.35529522509645E-22  -1.83816494952326E-23
      5.15927261581105E-01
      1.28981815395276E+02   1.28981815395276E+02   1.28981815395276E+02   0.00000000000000E+00  -4.00322046638122E-18
     -1.03652079121888E-06   0.00000000000000E+00  -0.00000000000000E+00  -1.03652079121077E-06   1.03652079121077E-06
      1.03652079121077E-06   1.81964566653929E-19   4.00322046638122E-21
      5.27588749316315E-01
      1.31897187329079E+02   1.31897187329079E+02   1.31897187329079E+02   0.00000000000000E+00   1.66277953765556E-21
     -1.04933902030531E-06   0.00000000000000E+00  -0.00000000000000E+00  -1.04933902030431E-06   1.04933902030431E-06
      1.04933902030431E-06  -7.55808880775701E-23  -1.66277953765556E-24
      5.44303548403450E-01
      1.36075887100863E+02   1.36075887100863E+02   1.36075887100863E+02   0.00000000000000E+00  -5.61948643466568E-20
     -1.05992567627010E-06   0.00000000000000E+00  -0.00000000000000E+00  -1.05992567626931E-06   1.05992567626931E-06
      1.05992567626931E-06   2.55431201576037E-21   5.61948643466568E-23
      5.68261427095011E-01
      1.42065356773753E+02   1.42065356773753E+02   1.42065356773753E+02   0.00000000000000E+00   8.37529392622017E-18
     -1.07934624512336E-06   0.00000000000000E+00  -0.00000000000000E+00  -1.07934624511065E-06   1.07934624511065E-06
      1.07934624511065E-06  -3.80695178464642E-19  -8.37529392622017E-21
      6.02601053219580E-01
      1.50650263304895E+02   1.50650263304895E+02   1.50650263304895E+02   0.00000000000000E+00   1.56707976466867E-17
     -1.11647273209343E-06   0.00000000000000E+00  -0.00000000000000E+00  -1.11647273209651E-06   1.11647273209651E-06
      1.11647273209651E-06  -7.12308983940304E-19  -1.56707976466867E-20
      6.51058081195362E-01
      1.62764520298840E+02   1.62764520298840E+02   1.62764520298840E+02   0.00000000000000E+00   4.38520528172714E-16
     -1.16254016619523E-06   0.00000000000000E+00  -0.00000000000000E+00  -1.16253833833429E-06   1.16253833833429E-06
      1.16253833833429E-06  -1.99327512805779E-17  -4.38520528172714E-19
      6.63558081195362E-01
      1.65889520298840E+02   1.65889520298840E+02   1.65889520298840E+02   0.00000000000000E+00   2.08751724650701E-16
     -1.17612046491117E-06   0.00000000000000E+00  -0.00000000000000E+00  -1.17612025874782E-06   1.17612025874782E-06
      1.17612025874782E-06  -9.48871475685010E-18  -2.08751724650701E-19
      6.71821970084251E-01
      1.67955492521063E+02   1.67955492521063E+02   1.67955492521063E+02   0.00000000000000E+00  -2.37321306568220E-18
     -1.17946402154591E-06   0.00000000000000E+00  -0.00000000000000E+00  -1.17946402125885E-06   1.17946402125885E-06
      1.17946402125885E-06   1.07873321167377E-19   2.37321306568220E-21
      6.73164852028695E-01
      1.68291213007174E+02   1.68291213007174E+02   1.68291213007174E+02   0.00000000000000E+00   6.08913428382726E-19
     -1.17997464826717E-06   0.00000000000000E+00  -0.00000000000000E+00  -1.17997464799821E-06   1.17997464799821E-06
      1.17997464799821E-06  -2.76778831083122E-20  -6.08913428382726E-22
      6.75059807661411E-01
      1.68764951915353E+02   1.68764951915353E+02   1.68764951915353E+02   0.00000000000000E+00   3.52338513746327E-19
     -1.18090354414958E-06   0.00000000000000E+00  -0.00000000000000E+00  -1.18090354415313E-06   1.18090354415313E-06
      1.18090354415313E-06  -1.60153869884669E-20  -3.52338513746327E-22
      6.76407331666898E-01
      1.69101832916725E+02   1.69101832916725E+02   1.69101832916725E+02   0.00000000000000E+00  -1.12714119142329E-17
     -1.18161336013694E-06   0.00000000000000E+00  -0.00000000000000E+00  -1.18161336004888E-06   1.18161336004888E-06
      1.18161336004888E-06   5.12336905192403E-19   1.12714119142329E-20
      6.78398672697229E-01
      1.69599668174307E+02   1.69599668174307E+02   1.69599668174307E+02   0.00000000000000E+00   9.13292140082864E-18
     -1.18296912534215E-06   0.00000000000000E+00  -0.00000000000000E+00  -1.18296912476835E-06   1.18296912476835E-06
      1.18296912476835E-06  -4.15132790946756E-19  -9.13292140082864E-21
      6.79803674424184E-01
      1.69950918606046E+02   1.69950918606046E+02   1.69950918606046E+02   0.00000000000000E+00   1.13901722492135E-18
     -1.18437702749953E-06   0.00000000000000E+00  -0.00000000000000E+00  -1.18437702637277E-06   1.18437702637277E-06
      1.18437702637277E-06  -5.17735102236734E-20  -1.13901722492135E-21
      6.81817510232821E-01
      1.70454377558205E+02   1.70454377558205E+02   1.70454377558205E+02   0.00000000000000E+00   2.44134170040171E-17
     -1.18684851542897E-06   0.00000000000000E+00  -0.00000000000000E+00  -1.18684851613710E-06   1.18684851613710E-06
      1.18684851613710E-06  -1.10970077290987E-18  -2.44134170040171E-20
      6.84793512038917E-01
      1.71198378009729E+02   1.71198378009729E+02   1.71198378009729E+02   0.00000000000000E+00   7.12751733629621E-19
     -1.18992674265200E-06   0.00000000000000E+00  -0.00000000000000E+00  -1.18992674265211E-06   1.18992674265211E-06
      1.18992674265211E-06  -3.23978060740681E-20  -7.12751733629621E-22
      6.88992981254185E-01
      1.72248245313546E+02   1.72248245313546E+02   1.72248245313546E+02   0.00000000000000E+00  -8.86627554641797E-17
     -1.19299950823747E-06   0.00000000000000E+00  -0.00000000000000E+00  -1.19299933679607E-06   1.19299933679607E-06
      1.19299933679607E-06   4.03012524837185E-18   8.86627554641797E-20
      6.95105542000854E-01
      1.73776385500214E+02   1.73776385500214E+02   1.73776385500214E+02   0.00000000000000E+00   7.49641099640476E-19
     -1.19623910812164E-06   0.00000000000000E+00  -0.00000000000000E+00  -1.19623910812574E-06   1.19623910812574E-06
      1.19623910812574E-06  -3.40745954382004E-20  -7.49641099640476E-22
      7.04002713754339E-01
      1.76000678438585E+02   1.76000678438585E+02   1.76000678438585E+02   0.00000000000000E+00   1.18021216276412E-17
     -1.20031115594678E-06   0.00000000000000E+00  -0.00000000000000E+00  -1.20031115594923E-06   1.20031115594923E-06
      1.20031115594923E-06  -5.36460073983693E-19  -1.18021216276412E-20
      7.16953041528856E-01
      1.79238260382214E+02   1.79238260382214E+02   1.79238260382214E+02   0.00000000000000E+00   4.63140453249568E-18
     -1.20928970876051E-06   0.00000000000000E+00  -0.00000000000000E+00  -1.20928970875768E-06   1.20928970875768E-06
      1.20928970875768E-06  -2.10518387840718E-19  -4.63140453249568E-21
      7.35802963067319E-01
      1.83950740766830E+02   1.83950740766830E+02   1.83950740766830E+02   0.00000000000000E+00   3.74522954505866E-17
     -1.21537007167553E-06   0.00000000000000E+00  -0.00000000000000E+00  -1.21537005960925E-06   1.21537005960925E-06
      1.21537005960925E-06  -1.70237706593576E-18  -3.74522954505866E-20
      7.63030627511765E-01
      1.90757656877941E+02   1.90757656877941E+02   1.90757656877941E+02   0.00000000000000E+00  -3.00609985432300E-19
     -1.23094622756494E-06   0.00000000000000E+00  -0.00000000000000E+00  -1.23094622749042E-06   1.23094622749042E-06
      1.23094622749042E-06   1.36640902469181E-20   3.00609985432300E-22
      8.01754416943867E-01
      2.00438604235967E+02   2.00438604235967E+02   2.00438604235967E+02   0.00000000000000E+00  -1.45242544342988E-17
     -1.25583127468143E-06   0.00000000000000E+00  -0.00000000000000E+00  -1.25583127468243E-06   1.25583127468243E-06
      1.25583127468243E-06   6.60193383377244E-19   1.45242544342988E-20
      8.26754416943867E-01
      2.06688604235967E+02   2.06688604235967E+02   2.06688604235967E+02   0.00000000000000E+00   1.42208910021223E-19
     -1.27511652157524E-06   0.00000000000000E+00  -0.00000000000000E+00  -1.27511652067784E-06   1.27511652067784E-06
      1.27511652067784E-06  -6.46404136460941E-21  -1.42208910021223E-22
      8.62032194721645E-01
      2.15508048680411E+02   2.15508048680411E+02   2.15508048680411E+02   0.00000000000000E+00  -1.09061155423621E-16
     -1.33174880912342E-06   0.00000000000000E+00  -0.00000000000000E+00  -1.33174840917143E-06   1.33174840917143E-06
      1.33174840917143E-06   4.95732524652821E-18   1.09061155423621E-19
      9.11813058919175E-01
      2.27953264729794E+02   2.27953264729794E+02   2.27953264729794E+02   0.00000000000000E+00  -2.11038846583029E-17
     -1.44884340288713E-06   0.00000000000000E+00  -0.00000000000000E+00  -1.44884335524861E-06   1.44884335524861E-06
      1.44884335524861E-06   9.59267484468330E-19   2.11038846583029E-20
      9.61813058919175E-01
      2.40453264729794E+02   2.40453264729794E+02   2.40453264729794E+02   0.00000000000000E+00   1.62032356244678E-16
     -1.57293367020747E-06   0.00000000000000E+00  -0.00000000000000E+00  -1.57293366075946E-06   1.57293366075946E-06
      1.57293366075946E-06  -7.36510710203081E-18  -1.62032356244678E-19
      1.00000000000000E+00
      2.50000000000000E+02   2.50000000000000E+02   2.50000000000000E+02   0.00000000000000E+00  -2.83032555146338E-18
     -1.67606220385769E-06   0.00000000000000E+00  -0.00000000000000E+00  -1.67606219573349E-06   1.67606219573349E-06
      1.67606219573349E-06   1.28651161430147E-19   2.83032555146338E-21
      0.00000000000000E+00
      2.50000000000000E+02   2.50000000000000E+02   2.50000000000000E+02   0.00000000000000E+00  -2.83032555146338E-18
     -1.67606220378639E-06   0.00000000000000E+00   0.00000000000000E+00  -1.67606219573349E-06   1.67606219573349E-06
      1.67606219573349E-06   1.28651161430147E-19   2.83032555146338E-21
      1.00000000000000E-09
      2.50000000000000E+02   2.49999999997408E+02   2.49999999997407E+02   0.00000000000000E+00  -3.88615170918243E-11
     -1.67603864594599E-06   8.51343515519205E-11   3.59466844821404E-21  -1.67606220865162E-06   1.67606220865162E-06
      1.67606220865162E-06   1.76643259508292E-12   3.88615170918243E-14
      2.00000000000000E-09
      2.50000000000000E+02   2.49999999997400E+02   2.49999999997400E+02   0.00000000000000E+00  -3.99697334468400E-11
     -1.67605645389453E-06   1.58048568348448E-11   3.60547349496551E-21  -1.67606222162690E-06   1.67606222162691E-06
      1.67606222162691E-06   1.81680606576546E-12   3.99697334468400E-14
      3.00000000000000E-09
      2.50000000000000E+02   2.49999999997411E+02   2.49999999997410E+02   0.00000000000000E+00  -4.03946522297814E-11
     -1.67606312822064E-06   9.16550294525509E-11   3.59048084636299E-21  -1.67606223458484E-06   1.67606223458484E-06
      1.67606223458484E-06   1.83612055589916E-12   4.03946522297814E-14
      4.00000000000000E-09
      2.50000000000000E+02   2.49999999997403E+02   2.49999999997402E+02   0.00000000000000E+00  -4.08116099941290E-11
     -1.67606047598862E-06   3.68235513262398E-12   3.60128589311446E-21  -1.67606224755781E-06   1.67606224755781E-06
      1.67606224755781E-06   1.85507318155132E-12   4.08116099941290E-14
      5.00000000000000E-09
      2.50000000000000E+02   2.49999999997399E+02   2.49999999997398E+02   0.00000000000000E+00  -4.11852203315176E-11
     -1.67606076742548E-06   2.93827477998618E-12   3.60712785619062E-21  -1.67606226055782E-06   1.67606226055782E-06
      1.67606226055782E-06   1.87205546961444E-12   4.11852203315176E-14
      6.00000000000000E-09
      2.50000000000000E+02   2.49999999997402E+02   2.49999999997401E+02   0.00000000000000E+00  -4.14844496276452E-11
     -1.67606534329804E-06   2.27501788210869E-12   3.60314704949270E-21  -1.67606227356511E-06   1.67606227356511E-06
      1.67606227356511E-06   1.88565680125660E-12   4.14844496276452E-14
      7.00000000000000E-09
      2.50000000000000E+02   2.49999999997398E+02   2.49999999997398E+02   0.00000000000000E+00  -4.18460854748109E-11
     -1.67606232673134E-06   2.84539356078922E-12   3.60764484407346E-21  -1.67606228657320E-06   1.67606228657321E-06
      1.67606228657321E-06   1.90209479430959E-12   4.18460854748109E-14
      8.00000000000000E-09
      2.50000000000000E+02   2.49999999997399E+02   2.49999999997399E+02   0.00000000000000E+00  -4.21885886105986E-11
     -1.67606261088416E-06   3.94369405946173E-12   3.60619727800149E-21  -1.67606229958127E-06   1.67606229958127E-06
      1.67606229958127E-06   1.91766311866357E-12   4.21885886105986E-14
      9.00000000000000E-09
      2.50000000000000E+02   2.49999999997401E+02   2.49999999997401E+02   0.00000000000000E+00  -4.25777611039647E-11
     -1.67605990764418E-06   3.71776122807248E-12   3.60392253131697E-21  -1.67606231256514E-06   1.67606231256515E-06
      1.67606231256515E-06   1.93535277745294E-12   4.25777611039647E-14
      1.00000000000000E-08
      2.50000000000000E+02   2.49999999997398E+02   2.49999999997398E+02   0.00000000000000E+00  -4.29319139899855E-11
     -1.67606217369395E-06   3.62528696320764E-12   3.60811013316802E-21  -1.67606232558032E-06   1.67606232558033E-06
      1.67606232558033E-06   1.95145063590843E-12   4.29319139899855E-14
      1.10000000000000E-08
      2.50000000000000E+02   2.49999999997398E+02   2.49999999997398E+02   0.00000000000000E+00  -4.32398891945892E-11
     -1.67606285133637E-06   2.43501516675136E-12   3.60800673559145E-21  -1.67606233859297E-06   1.67606233859298E-06
      1.67606233859298E-06   1.96544950884496E-12   4.32398891945892E-14
      1.20000000000000E-08
      2.50000000000000E+02   2.49999999997406E+02   2.49999999997406E+02   0.00000000000000E+00  -4.35412149432259E-11
     -1.67606481138874E-06   3.81146181608380E-12   3.59694319489856E-21  -1.67606235157367E-06   1.67606235157367E-06
      1.67606235157367E-06   1.97914613378300E-12   4.35412149432259E-14
      1.30000000000000E-08