DF-ISE text

Info {
  version   = 1.0
  type      = xyplot
  datasets  = [
    "time"
    "v(vbus)" "v(switch)" "v(collector)" "v(gate_driver)" "v(gate)"
    "i(DUT,collector)" "i(DUT,gate)" "i(Dfw,switch)" "i(Lload,vbus)" "i(Lsigma,collector)"
    "i(Vbus,vbus)" "i(Vgate,gate_driver)" "i(Rge,gate)" ]
  functions = [
    Time
    Voltage Voltage Voltage Voltage Voltage
    Current Current Current Current Current
    Current Current Current ]
}

Data {
      0.00000000000000E+00
      0.00000000000000E+00   0.00000000000000E+00   0.00000000000000E+00   0.00000000000000E+00   1.91111983002767E-18
      1.66225368375775E-23   0.00000000000000E+00   4.98088786862535E-01   4.98088786862237E-01   2.97772780113239E-13
      2.97771935230672E-13  -8.68690831830761E-20  -1.91111983002768E-21
      0.00000000000000E+00
      0.00000000000000E+00   0.00000000000000E+00   0.00000000000000E+00   0.00000000000000E+00  -4.80586920837083E-18
      8.14379411838742E-23   0.00000000000000E+00   4.98088786862535E-01   4.98088786862535E-01  -6.01369924280595E-23
      2.23477165072561E-17   2.18448600380492E-19   4.80586920837083E-21
      1.00000000000000E-05
      2.50000000000000E-03   2.50000000000000E-03   2.50000000000000E-03   0.00000000000000E+00   1.83025172681861E-18
     -2.16774713037208E-11   0.00000000000000E+00  -0.00000000000000E+00  -2.16774713178845E-11   2.16774713178845E-11
      2.16774713178845E-11  -8.31932603099555E-20  -1.83025172681861E-21
      2.47777777777778E-05
      6.19444444444445E-03   6.19444444444445E-03   6.19444444444445E-03   0.00000000000000E+00  -1.17228246453998E-17
     -5.62714583580610E-11   0.00000000000000E+00  -0.00000000000000E+00  -5.62714582208970E-11   5.62714582208970E-11
      5.62714582208970E-11   5.32855665700056E-19   1.17228246453998E-20
      4.67802469135802E-05
      1.16950617283951E-02   1.16950617283951E-02   1.16950617283951E-02   0.00000000000000E+00   3.80346674974430E-16
     -1.13613260574128E-10   0.00000000000000E+00  -0.00000000000000E+00  -1.13613257116704E-10   1.13613257116704E-10
      1.13613257116704E-10  -1.72884852261106E-17  -3.80346674974430E-19
      7.95394787379973E-05
      1.98848696844993E-02   1.98848696844993E-02   1.98848696844993E-02   0.00000000000000E+00  -2.84514152928836E-16
     -2.12176597476965E-10   0.00000000000000E+00  -0.00000000000000E+00  -2.12176456976254E-10   2.12176456976254E-10
      2.12176456976254E-10   1.29324614967643E-17   2.84514152928836E-19
      1.28314335009907E-04
      3.20785837524768E-02   3.20785837524768E-02   3.20785837524768E-02   0.00000000000000E+00   9.02643955776483E-20
     -3.87020904767757E-10   0.00000000000000E+00  -0.00000000000000E+00  -3.87020904767757E-10   3.87020904767757E-10
      3.87020904767757E-10  -4.10292707174095E-21  -9.02643955776483E-23
      2.00392733722840E-04
      5.00981834307101E-02   5.00981834307101E-02   5.00981834307101E-02   0.00000000000000E+00  -6.13216308411104E-17
     -6.93794898256913E-10   0.00000000000000E+00  -0.00000000000000E+00  -6.93794898026781E-10   6.93794898026781E-10
      6.93794898026781E-10   2.78734685641413E-18   6.13216308411104E-20
      3.06908589598620E-04
      7.67271473996549E-02   7.67271473996549E-02   7.67271473996549E-02   0.00000000000000E+00   2.71440304089386E-16
     -1.18675000011129E-09   0.00000000000000E+00  -0.00000000000000E+00  -1.18674991827359E-09   1.18674991827359E-09
      1.18674991827359E-09  -1.23381956404267E-17  -2.71440304089386E-19
      4.64315354392827E-04
      1.16078838598207E-01   1.16078838598207E-01   1.16078838598207E-01   0.00000000000000E+00   6.27045640483928E-20
     -1.84672561303070E-09   0.00000000000000E+00  -0.00000000000000E+00  -1.84672561303057E-09   1.84672561303057E-09
      1.84672561303057E-09  -2.85020745671175E-21  -6.27045640483928E-23
      6.95178609424331E-04
      1.73794652356083E-01   1.73794652356083E-01   1.73794652356083E-01   0.00000000000000E+00   1.42218762435978E-19
     -2.62084193402004E-09   0.00000000000000E+00  -0.00000000000000E+00  -2.62084193401935E-09   2.62084193401935E-09
      2.62084193401935E-09  -6.46448920163260E-21  -1.42218762435978E-22
      1.03377805013720E-03
      2.58444512534301E-01   2.58444512534301E-01   2.58444512534301E-01   0.00000000000000E+00  -1.23023458656173E-18
     -3.62203313190123E-09   0.00000000000000E+00  -0.00000000000000E+00  -3.62203313189868E-09   3.62203313189868E-09
      3.62203313189868E-09   5.59197539345998E-20   1.23023458656173E-21
      1.53039056318275E-03
      3.82597640795687E-01   3.82597640795687E-01   3.82597640795687E-01   0.00000000000000E+00  -1.67628365877876E-16
     -5.12314645833206E-09   0.00000000000000E+00  -0.00000000000000E+00  -5.12314612227213E-09   5.12314612227213E-09
      5.12314612227213E-09   7.61947117626681E-18   1.67628365877876E-19
      2.25323766550460E-03
      5.63309416376150E-01   5.63309416376150E-01   5.63309416376150E-01   0.00000000000000E+00   1.36398560161744E-17
     -7.34976903222299E-09   0.00000000000000E+00  -0.00000000000000E+00  -7.34976902844203E-09   7.34976902844203E-09
      7.34976902844203E-09  -6.19993455280536E-19  -1.36398560161744E-20
      3.29735014663616E-03
      8.24337536659040E-01   8.24337536659040E-01   8.24337536659040E-01   0.00000000000000E+00  -5.74646944727733E-18
     -1.03861156402996E-08   0.00000000000000E+00  -0.00000000000000E+00  -1.03861133646200E-08   1.03861133646200E-08
      1.03861133646200E-08   2.61203156694691E-19   5.74646944727733E-21
      4.80551261938175E-03
      1.20137815484544E+00   1.20137815484544E+00   1.20137815484544E+00   0.00000000000000E+00  -2.35308043456738E-19
     -1.44475897631522E-08   0.00000000000000E+00  -0.00000000000000E+00  -1.44475897631466E-08   1.44475897631466E-08
      1.44475897631466E-08   1.06958201571243E-20   2.35308043456738E-22
      6.96721216365043E-03
      1.74180304091261E+00   1.74180304091261E+00   1.74180304091261E+00   0.00000000000000E+00   3.60017220153816E-18
     -1.93888870830650E-08   0.00000000000000E+00  -0.00000000000000E+00  -1.93888870825563E-08   1.93888870825563E-08
      1.93888870825563E-08  -1.63644190979011E-19  -3.60017220153816E-21
      1.00896670609274E-02
      2.52241676523185E+00   2.52241676523185E+00   2.52241676523185E+00   0.00000000000000E+00  -1.54662234700980E-16
     -2.56993887561565E-08   0.00000000000000E+00  -0.00000000000000E+00  -2.56993782058204E-08   2.56993782058204E-08
      2.56993782058204E-08   7.03010157731703E-18   1.54662234700980E-19
      1.46345736336306E-02
      3.65864340840764E+00   3.65864340840764E+00   3.65864340840764E+00   0.00000000000000E+00  -1.94150512936934E-17
     -3.46869380361840E-08   0.00000000000000E+00  -0.00000000000000E+00  -3.46869379565338E-08   3.46869379565338E-08
      3.46869379565338E-08   8.82502331531522E-19   1.94150512936934E-20
      2.11994386830907E-02
      5.29985967077267E+00   5.29985967077267E+00   5.29985967077267E+00   0.00000000000000E+00  -7.13601374183466E-18
     -4.36140678919909E-08   0.00000000000000E+00  -0.00000000000000E+00  -4.36140678257694E-08   4.36140678257694E-08
      4.36140678257694E-08   3.24364260992485E-19   7.13601374183466E-21
      3.06090785873168E-02
      7.65226964682921E+00   7.65226964682921E+00   7.65226964682921E+00   0.00000000000000E+00  -5.74061013144656E-17
     -6.03805135752168E-08   0.00000000000000E+00  -0.00000000000000E+00  -6.03805026144911E-08   6.03805026144911E-08
      6.03805026144911E-08   2.60936824156665E-18   5.74061013144656E-20
      3.73526538520123E-02
      9.33816346300306E+00   9.33816346300306E+00   9.33816346300306E+00   0.00000000000000E+00   3.39804775015335E-18
     -6.61982532292488E-08   0.00000000000000E+00  -0.00000000000000E+00  -6.61982531640821E-08   6.61982531640821E-08
      6.61982531640821E-08  -1.54456715916121E-19  -3.39804775015335E-21
      4.70933736787945E-02
      1.17733434196986E+01   1.17733434196986E+01   1.17733434196986E+01   0.00000000000000E+00   9.11902318800468E-20
     -7.99564176458032E-08   0.00000000000000E+00  -0.00000000000000E+00  -7.99564176454182E-08   7.99564176454182E-08
      7.99564176454182E-08  -4.14501054001140E-21  -9.11902318800468E-23
      6.11633023174800E-02
      1.52908255793700E+01   1.52908255793700E+01   1.52908255793700E+01   0.00000000000000E+00  -2.60364187667331E-15
     -9.41086236003227E-08   0.00000000000000E+00  -0.00000000000000E+00  -9.40786138500337E-08   9.40786138500337E-08
      9.40786138500337E-08   1.18347358030606E-16   2.60364187667331E-18
      8.14865325733591E-02
      2.03716331433398E+01   2.03716331433398E+01   2.03716331433398E+01   0.00000000000000E+00   5.77479429969286E-17
     -1.17139768114631E-07   0.00000000000000E+00  -0.00000000000000E+00  -1.17139708944524E-07   1.17139708944524E-07
      1.17139708944524E-07  -2.62490649986025E-18  -5.77479429969286E-20
      1.10842309609629E-01
      2.77105774024072E+01   2.77105774024072E+01   2.77105774024072E+01   0.00000000000000E+00   3.75325809008176E-16
     -1.41876501436490E-07   0.00000000000000E+00  -0.00000000000000E+00  -1.41870915174305E-07   1.41870915174305E-07
      1.41870915174305E-07  -1.70602640458264E-17  -3.75325809008176E-19
      1.52918923361615E-01
      3.82297308404039E+01   3.82297308404039E+01   3.82297308404039E+01   0.00000000000000E+00   1.51465425214319E-18
     -1.72376990153005E-07   0.00000000000000E+00  -0.00000000000000E+00  -1.72376990079295E-07   1.72376990079295E-07
      1.72376990079295E-07  -6.88479205519689E-20  -1.51465425214319E-21
      2.02918923361615E-01
      5.07297308404039E+01   5.07297308404039E+01   5.07297308404039E+01   0.00000000000000E+00  -4.76446487418683E-17
     -2.03471327278741E-07   0.00000000000000E+00  -0.00000000000000E+00  -2.03471306834233E-07   2.03471306834233E-07
      2.03471306834233E-07   2.16566585190310E-18   4.76446487418683E-20
      2.52918923361615E-01
      6.32297308404039E+01   6.32297308404039E+01   6.32297308404039E+01   0.00000000000000E+00  -5.29024753832724E-20
     -2.33556479776620E-07   0.00000000000000E+00  -0.00000000000000E+00  -2.33556479776224E-07   2.33556479776224E-07
      2.33556479776224E-07   2.40465797196322E-21   5.29024753832724E-23
      3.02918923361615E-01
      7.57297308404039E+01   7.57297308404039E+01   7.57297308404039E+01   0.00000000000000E+00   3.78719508970064E-16
     -2.66943191041388E-07   0.00000000000000E+00  -0.00000000000000E+00  -2.66943190790743E-07   2.66943190790743E-07
      2.66943190790743E-07  -1.72145231350032E-17  -3.78719508970064E-19
      3.52918923361615E-01
      8.82297308404039E+01   8.82297308404039E+01   8.82297308404039E+01   0.00000000000000E+00   5.06978219716546E-16
     -3.04055093858125E-07   0.00000000000000E+00  -0.00000000000000E+00  -3.04055046045039E-07   3.04055046045039E-07
      3.04055046045039E-07  -2.30444645325699E-17  -5.06978219716546E-19
      4.02918923361615E-01
      1.00729730840404E+02   1.00729730840404E+02   1.00729730840404E+02   0.00000000000000E+00   3.58255891855871E-15
     -3.38763150111995E-07   0.00000000000000E+00  -0.00000000000000E+00  -3.38763139542473E-07   3.38763139542473E-07
      3.38763139542473E-07  -1.62843587207213E-16  -3.58255891855871E-18
      4.52918923361615E-01
      1.13229730840404E+02   1.13229730840404E+02   1.13229730840404E+02   0.00000000000000E+00  -8.87486895594775E-20
     -3.72572046120982E-07   0.00000000000000E+00  -0.00000000000000E+00  -3.72572046059411E-07   3.72572046059411E-07
      3.72572046059411E-07   4.03403134364598E-21   8.87486895594775E-23
      5.02918923361615E-01
      1.25729730840404E+02   1.25729730840404E+02   1.25729730840404E+02   0.00000000000000E+00   1.10346292076950E-16
     -3.97187531047987E-07   0.00000000000000E+00  -0.00000000000000E+00  -3.97187531046277E-07   3.97187531046277E-07
      3.97187531046277E-07  -5.01574054895169E-18  -1.10346292076950E-19
      5.52918923361616E-01
      1.38229730840404E+02   1.38229730840404E+02   1.38229730840404E+02   0.00000000000000E+00   7.23161419284925E-16
     -4.31498131219070E-07   0.00000000000000E+00  -0.00000000000000E+00  -4.31498131214971E-07   4.31498131214971E-07
      4.31498131214971E-07  -3.28709736038597E-17  -7.23161419284925E-19
      6.02918923361616E-01
      1.50729730840404E+02   1.50729730840404E+02   1.50729730840404E+02   0.00000000000000E+00   8.11349836270943E-16
     -4.60710291958994E-07   0.00000000000000E+00  -0.00000000000000E+00  -4.60710283014830E-07   4.60710283014830E-07
      4.60710283014830E-07  -3.68795380123159E-17  -8.11349836270943E-19
      6.52918923361616E-01
      1.63229730840404E+02   1.63229730840404E+02   1.63229730840404E+02   0.00000000000000E+00  -7.57665356628428E-16
     -4.89959399161762E-07   0.00000000000000E+00  -0.00000000000000E+00  -4.89956613494987E-07   4.89956613494987E-07
      4.89956613494987E-07   3.44393343922013E-17   7.57665356628428E-19
      7.02918923361616E-01
      1.75729730840404E+02   1.75729730840404E+02   1.75729730840404E+02   0.00000000000000E+00  -6.18687071597563E-18
     -5.20878073694023E-07   0.00000000000000E+00  -0.00000000000000E+00  -5.20878066694569E-07   5.20878066694569E-07
      5.20878066694569E-07   2.81221396180702E-19   6.18687071597563E-21
      7.52918923361616E-01
      1.88229730840404E+02   1.88229730840404E+02   1.88229730840404E+02   0.00000000000000E+00   1.03452820972813E-17
     -5.48556942677729E-07   0.00000000000000E+00  -0.00000000000000E+00  -5.48556909738799E-07   5.48556909738799E-07
      5.48556909738799E-07  -4.70240095330961E-19  -1.03452820972813E-20
      8.02918923361616E-01
      2.00729730840404E+02   2.00729730840404E+02   2.00729730840404E+02   0.00000000000000E+00  -1.62745001564126E-20
     -5.85887833615099E-07   0.00000000000000E+00  -0.00000000000000E+00  -5.85887833614943E-07   5.85887833614943E-07
      5.85887833614943E-07   7.39750007109667E-22   1.62745001564126E-23
      8.52918923361616E-01
      2.13229730840404E+02   2.13229730840404E+02   2.13229730840404E+02   0.00000000000000E+00  -3.97365850613280E-18
     -6.17490664046293E-07   0.00000000000000E+00  -0.00000000000000E+00  -6.17490663932393E-07   6.17490663932393E-07
      6.17490663932393E-07   1.80620841187995E-19   3.97365850613280E-21
      9.02918923361616E-01
      2.25729730840404E+02   2.25729730840404E+02   2.25729730840404E+02   0.00000000000000E+00   8.03366729463333E-15
     -6.55434765585628E-07   0.00000000000000E+00  -0.00000000000000E+00  -6.55434736724190E-07   6.55434736724190E-07
      6.55434736724190E-07  -3.65166695210606E-16  -8.03366729463333E-18
      9.52918923361616E-01
      2.38229730840404E+02   2.38229730840404E+02   2.38229730840404E+02   0.00000000000000E+00  -1.07905659767215E-17
     -6.90827464872896E-07   0.00000000000000E+00  -0.00000000000000E+00  -6.90827282549546E-07   6.90827282549546E-07
      6.90827282549546E-07   4.90480271669167E-19   1.07905659767215E-20
      1.00000000000000E+00
      2.50000000000000E+02   2.50000000000000E+02   2.50000000000000E+02   0.00000000000000E+00   3.91645581586480E-15
     -7.37589456927392E-07   0.00000000000000E+00  -0.00000000000000E+00  -7.37562655183881E-07   7.37562655183881E-07
      7.37562655183881E-07  -1.78020718902946E-16  -3.91645581586480E-18
      0.00000000000000E+00
      2.50000000000000E+02   2.50000000000000E+02   2.50000000000000E+02   0.00000000000000E+00   3.91645581586480E-15
     -7.37589456917886E-07   0.00000000000000E+00   0.00000000000000E+00  -7.37562655183881E-07   7.37562655183881E-07
      7.37562655183881E-07  -1.78020718902946E-16  -3.91645581586480E-18
      1.00000000000000E-09
      2.50000000000000E+02   2.50000000003015E+02   2.50000000003015E+02   0.00000000000000E+00   4.36452708281333E-11
     -7.37610009391039E-07  -7.07630872170713E-12  -4.18026062311330E-21  -7.37562641250201E-07   7.37562641250197E-07
      7.37562641250197E-07  -1.98387594673333E-12  -4.36452708281333E-14
      2.00000000000000E-09
      2.50000000000000E+02   2.50000000003570E+02   2.50000000003570E+02   0.00000000000000E+00   5.32638877243235E-11
     -7.37561743328087E-07  -5.79789231642358E-13  -4.95000388188217E-21  -7.37562624423224E-07   7.37562624423219E-07
      7.37562624423219E-07  -2.42108580565107E-12  -5.32638877243235E-14
      3.00000000000000E-09
      2.50000000000000E+02   2.50000000004126E+02   2.50000000004127E+02   0.00000000000000E+00   6.27683372291988E-11
     -7.37533996586362E-07  -2.81059921341301E-11  -5.72155659824101E-21  -7.37562604500059E-07   7.37562604500054E-07
      7.37562604500054E-07  -2.85310623769085E-12  -6.27683372291988E-14
      4.00000000000000E-09
      2.50000000000000E+02   2.50000000004682E+02   2.50000000004683E+02   0.00000000000000E+00   7.20175325395404E-11
     -7.37562733980064E-07   1.99670571106289E-12  -6.49285082065842E-21  -7.37562581780778E-07   7.37562581780772E-07
      7.37562581780772E-07  -3.27352420634274E-12  -7.20175325395404E-14
      5.00000000000000E-09
      2.50000000000000E+02   2.50000000005240E+02   2.50000000005241E+02   0.00000000000000E+00   8.11979233019941E-11
     -7.37561509750997E-07   3.29161774652508E-12  -7.26569600672437E-21  -7.37562556278934E-07   7.37562556278927E-07
      7.37562556278927E-07  -3.69081469554518E-12  -8.11979233019941E-14
      6.00000000000000E-09
      2.50000000000000E+02   2.50000000005801E+02   2.50000000005801E+02   0.00000000000000E+00   9.06311081724457E-11
     -7.37563404126973E-07   1.99971962139883E-12  -8.04314238494765E-21  -7.37562527974224E-07   7.37562527974216E-07
      7.37562527974216E-07  -4.11959582602026E-12  -9.06311081724458E-14
      7.00000000000000E-09
      2.50000000000000E+02   2.50000000006354E+02   2.50000000006355E+02   0.00000000000000E+00   9.97557034212035E-11
     -7.37563316598634E-07   3.15348297441001E-12  -8.81138637885627E-21  -7.37562496899099E-07   7.37562496899090E-07
      7.37562496899090E-07  -4.53435015550925E-12  -9.97557034212035E-14
      8.00000000000000E-09
      2.50000000000000E+02   2.50000000006914E+02   2.50000000006915E+02   0.00000000000000E+00   1.08936651967812E-10
     -7.37564220039503E-07   3.97734152261210E-12  -9.58743688979587E-21  -7.37562463033710E-07   7.37562463033701E-07
      7.37562463033701E-07  -4.95166599853692E-12  -1.08936651967812E-13
      9.00000000000000E-09
      2.50000000000000E+02   2.50000000007476E+02   2.50000000007477E+02   0.00000000000000E+00   1.18114439042607E-10
     -7.37565240072077E-07   4.01353133114467E-12  -1.03670546171271E-20  -7.37562426354333E-07   7.37562426354322E-07
      7.37562426354322E-07  -5.36883813830034E-12  -1.18114439042607E-13
      1.00000000000000E-08
      2.50000000000000E+02   2.50000000008026E+02   2.50000000008027E+02   0.00000000000000E+00   1.27097904944738E-10
     -7.37562616912978E-07   5.00208327877976E-12  -1.11295083467478E-20  -7.37562386912197E-07   7.37562386912186E-07
      7.37562386912186E-07  -5.77717749748807E-12  -1.27097904944738E-13
      1.10000000000000E-08
      2.50000000000000E+02   2.50000000008582E+02   2.50000000008584E+02   0.00000000000000E+00   1.36124341027139E-10
     -7.37559498260245E-07   4.99624861128813E-12  -1.19005957740121E-20  -7.37562344683425E-07   7.37562344683413E-07
      7.37562344683413E-07  -6.18747004668815E-12  -1.36124341027139E-13
      1.20000000000000E-08
      2.50000000000000E+02   2.50000000009136E+02   2.50000000009138E+02   0.00000000000000E+00   1.45060620054771E-10
     -7.37561888147014E-07   4.23974839052971E-12  -1.26689431654973E-20  -7.37562299691196E-07   7.37562299691184E-07
      7.37562299691184E-07  -6.59366454794414E-12  -1.45060620054771E-13
      1.30000000000000E-08
      2.50000000000000E+02   2.50000000009684E+02   2.50000000009686E+02   0.00000000000000E+00   1.53718021529794E-10
     -7.37560285077515E-07   5.80376980992662E-12  -1.34287602569156E-20  -7.37562251952400E-07   7.37562251952386E-07
      7.37562251952386E-07  -6.98718279680883E-12  -1.53718021529794E-13
      1.40000000000000E-08
      2.50000000000000E+02   2.50000000010242E+02   2.50000000010244E+02   0.00000000000000E+00   1.62572754528071E-10
     -7.37563695054433E-07   5.81936876771665E-12  -1.42023292260175E-20  -7.37562201445230E-07   7.37562201445216E-07
      7.37562201445216E-07  -7.38967066036684E-12  -1.62572754528071E-13
      1.50000000000000E-08
      2.50000000000000E+02   2.50000000010796E+02   2.50000000010798E+02   0.00000000000000E+00   1.71260362221606E-10
     -7.37562587461664E-07   6.35799182731267E-12  -1.49705215211378E-20  -7.37562148160393E-07   7.37562148160378E-07
      7.37562148160378E-07  -7.78456191916392E-12  -1.71260362221606E-13
      1.60000000000000E-08
      2.50000000000000E+02   2.50000000011335E+02   2.50000000011337E+02   0.00000000000000E+00   1.80234902079625E-10
     -7.37564190422020E-07   6.46804628091056E-12  -1.57181893973092E-20  -7.37562092185980E-07   7.37562092185965E-07
      7.37562092185965E-07  -8.19249554907386E-12  -1.80234902079625E-13
      1.70000000000000E-08
      2.50000000000000E+02   2.50000000011854E+02   2.50000000011856E+02   0.00000000000000E+00   1.89552286049694E-10
     -7.37562470785748E-07   8.23772630543449E-12  -1.64375263375006E-20  -7.37562033465425E-07   7.37562033465409E-07
      7.37562033465409E-07  -8.61601300225884E-12  -1.89552286049694E-13
      1.80000000000000E-08
      2.50000000000000E+02   2.50000000011766E+02   2.50000000011768E+02   0.00000000000000E+00   2.05690931743344E-10
     -7.37561508934115E-07   7.64261772519655E-12  -1.63153104019959E-20  -7.37561975097034E-07   7.37561975097017E-07
      7.37561975097017E-07  -9.34958780651565E-12  -2.05690931743344E-13
      1.90000000000000E-08
      2.50000000000000E+02   2.50000000012269E+02   2.50000000012271E+02   0.00000000000000E+00   2.14751056065398E-10
     -7.37564423447278E-07   6.88182381719323E-12  -1.70129338511078E-20  -7.37561914545832E-07   7.37561914545815E-07
      7.37561914545815E-07  -9.76141163933629E-12  -2.14751056065398E-13
      2.00000000000000E-08
      2.50000000000000E+02   2.50000000012818E+02   2.50000000012820E+02   0.00000000000000E+00   2.23240239628445E-10
     -7.37561567135790E-07   9.47006354837181E-12  -1.77741985085980E-20  -7.37561851144534E-07   7.37561851144516E-07
      7.37561851144516E-07  -1.01472836194748E-11  -2.23240239628445E-13
      2.10000000000000E-08
      2.50000000000000E+02   2.50000000013370E+02   2.50000000013372E+02   0.00000000000000E+00   2.31692291543412E-10
     -7.37561741961627E-07   8.71981786794535E-12  -1.85397024667276E-20  -7.37561784986101E-07   7.37561784986082E-07
      7.37561784986082E-07  -1.05314677974278E-11  -2.31692291543412E-13
      2.20000000000000E-08
      2.50000000000000E+02   2.50000000013930E+02   2.50000000013932E+02   0.00000000000000E+00   2.40127633812685E-10
     -7.37563111761853E-07   9.84453681464610E-12  -1.93160631703969E-20  -7.37561716034772E-07   7.37561716034753E-07
      7.37561716034753E-07  -1.09148924460311E-11  -2.40127633812685E-13
      2.30000000000000E-08
      2.50000000000000E+02   2.50000000014476E+02   2.50000000014478E+02   0.00000000000000E+00   2.48368290909425E-10
     -7.37559381086508E-07   1.06578624426572E-11  -2.00726232381532E-20  -7.37561644337739E-07   7.37561644337719E-07
      7.37561644337719E-07  -1.12894677686102E-11  -2.48368290909425E-13
      2.40000000000000E-08
      2.50000000000000E+02   2.50000000015260E+02   2.50000000015262E+02   0.00000000000000E+00   2.53759600233774E-10
     -7.37562091574221E-07   1.02155899693141E-11  -2.11590732739533E-20  -7.37561568906757E-07   7.37561568906736E-07
      7.37561568906736E-07  -1.15345272833534E-11  -2.53759600233774E-13
      2.50000000000000E-08
      2.50000000000000E+02   2.50000000015713E+02   2.50000000015716E+02   0.00000000000000E+00   2.63691371384848E-10
     -7.37563373953752E-07   1.14859684401322E-11  -2.17876788407053E-20  -7.37561490586911E-07   7.37561490586889E-07
      7.37561490586889E-07  -1.19859714265840E-11  -2.63691371384848E-13
      2.60000000000000E-08
      2.50000000000000E+02   2.50000000016210E+02   2.50000000016212E+02   0.00000000000000E+00   2.71968242903708E-10
     -7.37563082448435E-07   1.18834463663193E-11  -2.24769787849034E-20  -7.37561410211589E-07   7.37561410211566E-07
      7.37561410211566E-07  -1.23621928592594E-11  -2.71968242903708E-13
      2.70000000000000E-08
      2.50000000000000E+02   2.50000000016768E+02   2.50000000016770E+02   0.00000000000000E+00   2.81139668928458E-10
     -7.37577247162162E-07  -1.64456841137415E-12  -2.32485315012623E-20  -7.37561327622661E-07   7.37561327622637E-07
      7.37561327622637E-07  -1.27790758603845E-11  -2.81139668928458E-13
      2.80000000000000E-08
      2.50000000000000E+02   2.50000000017310E+02   2.50000000017313E+02   0.00000000000000E+00   2.89282743656971E-10
     -7.37554979930298E-07   7.12141316556754E-12  -2.40032304126403E-20  -7.37561242061308E-07   7.37561242061284E-07
      7.37561242061284E-07  -1.31492156207714E-11  -2.89282743656971E-13
      2.90000000000000E-08
      2.50000000000000E+02   2.50000000017860E+02   2.50000000017863E+02   0.00000000000000E+00   2.97383776415016E-10
     -7.37562674310264E-07   2.82230642761687E-12  -2.47651671543782E-20  -7.37561153551000E-07   7.37561153550976E-07
      7.37561153550976E-07  -1.35174443825007E-11  -2.97383776415016E-13
      3.00000000000000E-08
      2.50000000000000E+02   2.50000000018408E+02   2.50000000018411E+02   0.00000000000000E+00   3.05335480150282E-10
     -7.37562149644228E-07   1.29416087334383E-11  -2.55253461373145E-20  -7.37561062203597E-07   7.37561062203571E-07
      7.37561062203571E-07  -1.38788854613765E-11  -3.05335480150282E-13
      3.10000000000000E-08
      2.50000000000000E+02   2.50000000018965E+02   2.50000000018968E+02   0.00000000000000E+00   3.13402474312259E-10
     -7.37564131519868E-07   1.27880788279227E-11  -2.62978294318624E-20  -7.37560968073015E-07   7.37560968072989E-07
      7.37560968072989E-07  -1.42455670141936E-11  -3.13402474312259E-13
      3.20000000000000E-08
      2.50000000000000E+02   2.50000000019519E+02   2.50000000019522E+02   0.00000000000000E+00   3.21359226950574E-10
     -7.37562936510552E-07   1.32229052907314E-11  -2.70656081366765E-20  -7.37560871172174E-07   7.37560871172147E-07
      7.37560871172147E-07  -1.46072375886624E-11  -3.21359226950574E-13
      3.30000000000000E-08
      2.50000000000000E+02   2.50000000020066E+02   2.50000000020070E+02   0.00000000000000E+00   3.29202393226986E-10
     -7.37561246026581E-07   1.30956500555796E-11  -2.78249599390002E-20  -7.37560771530220E-07   7.37560771530192E-07
      7.37560771530192E-07  -1.49637451466812E-11  -3.29202393226986E-13
      3.40000000000000E-08
      2.50000000000000E+02   2.50000000020613E+02   2.50000000020616E+02   0.00000000000000E+00   3.36824982826873E-10
     -7.37559613859649E-07   1.57972578333926E-11  -2.85830709704050E-20  -7.37560669143726E-07   7.37560669143697E-07
      7.37560669143697E-07  -1.53102264921306E-11  -3.36824982826873E-13
      3.50000000000000E-08
      2.50000000000000E+02   2.50000000021157E+02   2.50000000021160E+02   0.00000000000000E+00   3.44530915750193E-10
     -7.37560342461882E-07   1.43010289332912E-11  -2.93374596890534E-20  -7.37560564037140E-07   7.37560564037110E-07
      7.37560564037110E-07  -1.56604961704633E-11  -3.44530915750193E-13
      3.60000000000000E-08
      2.50000000000000E+02   2.50000000021702E+02   2.50000000021705E+02   0.00000000000000E+00   3.52190582014912E-10
     -7.37557369566472E-07   1.44174368983845E-11  -3.00922102992197E-20  -7.37560456208572E-07   7.37560456208542E-07
      7.37560456208542E-07  -1.60086628188597E-11  -3.52190582014912E-13
      3.69999999999999E-08
      2.50000000000000E+02   2.50000000022252E+02   2.50000000022255E+02   0.00000000000000E+00   3.59980190192216E-10
     -7.37559497172952E-07   1.48367896311497E-11  -3.08553878118765E-20  -7.37560345628629E-07   7.37560345628598E-07
      7.37560345628598E-07  -1.63627359178280E-11  -3.59980190192216E-13
      3.79999999999999E-08
      2.50000000000000E+02   2.50000000022794E+02   2.50000000022797E+02   0.00000000000000E+00   3.67419011712900E-10
     -7.37559293123107E-07   1.73978421570052E-11  -3.16064678080746E-20  -7.37560232340655E-07   7.37560232340623E-07
      7.37560232340623E-07  -1.67008641687682E-11  -3.67419011712900E-13
      3.89999999999999E-08
      2.50000000000000E+02   2.50000000023334E+02   2.50000000023338E+02   0.00000000000000E+00   3.74927277300237E-10
     -7.37558535296984E-07   1.48644098027961E-11  -3.23562553345657E-20  -7.37560116348428E-07   7.37560116348396E-07
      7.37560116348396E-07  -1.70421489681926E-11  -3.74927277300237E-13
      3.99999999999999E-08
      2.50000000000000E+02   2.50000000023882E+02   2.50000000023886E+02   0.00000000000000E+00   3.82494063198271E-10
     -7.37560983502153E-07   1.60897155948938E-11  -3.31158139320425E-20  -7.37559997622369E-07   7.37559997622336E-07
      7.37559997622336E-07  -1.73860937817396E-11  -3.82494063198271E-13
      4.09999999999999E-08
      2.50000000000000E+02   2.50000000024431E+02   2.50000000024435E+02   0.00000000000000E+00   3.89968097853918E-10
     -7.37562295021891E-07   1.74167156336755E-11  -3.38767166980147E-20  -7.37559876159965E-07   7.37559876159931E-07
      7.37559876159931E-07  -1.77258226297235E-11  -3.89968097853918E-13
      4.19999999999999E-08
      2.50000000000000E+02   2.50000000024978E+02   2.50000000024982E+02   0.00000000000000E+00   3.97421888070246E-10
     -7.37560109061323E-07   1.75460543401441E-11  -3.46358100063969E-20  -7.37559751956034E-07   7.37559751956000E-07
      7.37559751956000E-07  -1.80646312759203E-11  -3.97421888070246E-13
      4.29999999999999E-08