DF-ISE text

Info {
  version   = 1.0
  type      = xyplot
  datasets  = [
    "time"
    "gate OuterVoltage" "gate InnerVoltage" "gate QuasiFermiPotential" "gate DisplacementCurrent" "gate eCurrent"
    "gate hCurrent" "gate TotalCurrent" "gate Charge" "emitter OuterVoltage" "emitter InnerVoltage"
    "emitter QuasiFermiPotential" "emitter DisplacementCurrent" "emitter eCurrent" "emitter hCurrent" "emitter TotalCurrent"
    "emitter Charge" "collector OuterVoltage" "collector InnerVoltage" "collector QuasiFermiPotential" "collector DisplacementCurrent"
    "collector eCurrent" "collector hCurrent" "collector TotalCurrent" "collector Charge" "thermode_left Temperature"
    "thermode_left lHeatFlux" "thermode_right Temperature" "thermode_right lHeatFlux" "Tmin" "Tave"
    "Tmax" ]
  functions = [
    Time
    OuterVoltage InnerVoltage QuasiFermiPotential DisplacementCurrent eCurrent
    hCurrent TotalCurrent Charge OuterVoltage InnerVoltage
    QuasiFermiPotential DisplacementCurrent eCurrent hCurrent TotalCurrent
    Charge OuterVoltage InnerVoltage QuasiFermiPotential DisplacementCurrent
    eCurrent hCurrent TotalCurrent Charge Temperature
    lHeatFlux Temperature lHeatFlux MinTemperature AveTemperature
    MaxTemperature ]
}

Data {
      0.00000000000000E+00
      8.95135307219328E-19   0.00000000000000E+00   0.00000000000000E+00   0.00000000000000E+00   0.00000000000000E+00
      0.00000000000000E+00   0.00000000000000E+00  -3.23813250213991E-08   0.00000000000000E+00   1.65320526973548E-15
      0.00000000000000E+00   7.38343590896946E-21  -3.81954528704766E-12  -1.67793363311126E-06  -1.67793745265654E-06
     -5.89529251077898E-08   2.49999999983221E+02   2.49999999983219E+02   0.00000000000000E+00   3.16432967527263E-21
      1.23155730649093E-06   4.46380142186360E-07   1.67793744867730E-06  -5.91304220229263E-08   3.00000000000000E+02
      0.00000000000000E+00   3.00000000000000E+02   0.00000000000000E+00   3.00000000000000E+02   3.00000000000086E+02
      3.00000000000000E+02
      2.37500000000000E-08
     -3.98522113866243E-12  -3.98511735541934E-12   0.00000000000000E+00   7.99224523599493E-09  -7.99226846690762E-09
      2.01339402072577E-23  -2.32309126691880E-14  -3.23813250214477E-08   0.00000000000000E+00   1.68777049341573E-15
      0.00000000000000E+00  -8.06176684628553E-11   9.56258978029520E-11  -1.67795080522755E-06  -1.67793579699821E-06
     -5.89529251077246E-08   2.49999999983251E+02   2.49999999983251E+02   0.00000000000000E+00  -6.51652043000782E-10
      1.23155730940952E-06   4.47030160317343E-07   1.67793581768386E-06  -5.91304220230584E-08   3.00000000000000E+02
      4.94349676107553E-10   3.00000000000000E+02   3.78052058682376E-10   2.99999999999976E+02   3.00000000000653E+02
      3.00000000069890E+02
      4.75000000000000E-08
     -2.23062388581156E-12  -2.23058217760226E-12   0.00000000000000E+00   1.22817955302012E-09  -1.22870056491240E-09
      2.53573339914483E-23  -5.21011892249699E-13  -3.23813250214493E-08   0.00000000000000E+00   1.63970837286986E-15
      0.00000000000000E+00  -1.04380658671040E-10   2.69799359882681E-11  -1.67785947029187E-06  -1.67793687101456E-06
     -5.89529251077146E-08   2.49999999983218E+02   2.49999999983218E+02   0.00000000000000E+00  -7.88814269954913E-10
      1.23155730941166E-06   4.47168925989205E-07   1.67793742113091E-06  -5.91304220230669E-08   3.00000000000000E+02
      8.79484500429577E-10   3.00000000000000E+02   8.01340156241328E-10   2.99999999999963E+02   3.00000000001204E+02
      3.00000000095104E+02
      7.12500000000000E-08
     -2.70204711621899E-14  -2.70665182403496E-14   0.00000000000000E+00   1.32288690451146E-08  -1.32289599314735E-08
      1.57339627560358E-22  -9.08863586917479E-14  -3.23813250214513E-08   0.00000000000000E+00   1.68711210820278E-15
      0.00000000000000E+00  -7.94434035532579E-11  -9.64053563362438E-13  -1.67785693623965E-06  -1.67793734369677E-06
     -5.89529251077118E-08   2.49999999983220E+02   2.49999999983219E+02   0.00000000000000E+00   2.42983537462813E-10
      1.23155730941909E-06   4.46137142315206E-07   1.67793743527176E-06  -5.91304220230671E-08   3.00000000000000E+02
      1.45130197175336E-09   3.00000000000000E+02   1.13087576469899E-09   2.99999999999952E+02   3.00000000001752E+02
      3.00000000114165E+02
      9.50000000000000E-08
      1.93417342295733E-12   1.93423380967841E-12   0.00000000000000E+00  -6.26021960213632E-09   6.26003577076232E-09
      2.11570121810180E-22  -1.83831373787465E-13  -3.23813250214557E-08   0.00000000000000E+00   1.60053445269891E-15
      0.00000000000000E+00  -3.16540841215645E-11  -4.73353424991848E-11  -1.67785824944528E-06  -1.67793723887190E-06
     -5.89529251077070E-08   2.49999999983221E+02   2.49999999983219E+02   0.00000000000000E+00  -3.06326816762896E-12
      1.23155730942819E-06   4.46383164975077E-07   1.67793741113510E-06  -5.91304220230682E-08   3.00000000000000E+02
      1.95897289303714E-09   3.00000000000000E+02   1.52527678535523E-09   2.99999999999943E+02   3.00000000002309E+02
      3.00000000129615E+02
      1.18750000000000E-07
      3.66162250196438E-12   3.66162509320941E-12   0.00000000000000E+00  -2.80388592899731E-09   2.80361379393300E-09
      1.76873070124581E-22  -2.72135064130081E-13  -3.23813250214622E-08   0.00000000000000E+00   1.60744749743496E-15
      0.00000000000000E+00  -2.11168690932125E-11  -8.00554687536562E-11  -1.67783598203791E-06  -1.67793715437576E-06
     -5.89529251076996E-08   2.49999999983221E+02   2.49999999983219E+02   0.00000000000000E+00   1.35196042235441E-10
      1.23155730943830E-06   4.46244920479240E-07   1.67793742595977E-06  -5.91304220230686E-08   3.00000000000000E+02
      2.29742661540224E-09   3.00000000000000E+02   1.86033787356980E-09   2.99999999999935E+02   3.00000000002865E+02
      3.00000000142687E+02
      1.42500000000000E-07
      5.18156679135087E-12   5.18148690228459E-12   0.00000000000000E+00   4.38992572454896E-09  -4.39027182450327E-09
      2.56373583683091E-22  -3.46099954049041E-13  -3.23813250214705E-08   0.00000000000000E+00   1.63608725419860E-15
      0.00000000000000E+00  -1.02831828465633E-10   9.24688641432803E-11  -1.67792671889812E-06  -1.67793708186244E-06
     -5.89529251076907E-08   2.49999999983221E+02   2.49999999983219E+02   0.00000000000000E+00   6.36360238944941E-10
      1.23155730944906E-06   4.45743750357347E-07   1.67793742004535E-06  -5.91304220230693E-08   3.00000000000000E+02
      2.77920871295046E-09   3.00000000000000E+02   2.30950307010662E-09   2.99999999999928E+02   3.00000000003420E+02
      3.00000000154059E+02
      1.66250000000000E-07
      6.51244708180438E-12   6.51233035496604E-12   0.00000000000000E+00   1.10744270078318E-08  -1.10748393399294E-08
      2.37885251613349E-22  -4.12332097356681E-13  -3.23813250214803E-08   0.00000000000000E+00   1.64168352850873E-15
      0.00000000000000E+00   6.18091881657486E-11  -7.80961899455266E-11  -1.67792073314327E-06  -1.67793702014505E-06
     -5.89529251076805E-08   2.49999999983221E+02   2.49999999983219E+02   0.00000000000000E+00   7.41036884182718E-10
      1.23155730946067E-06   4.45639083282633E-07   1.67793742962749E-06  -5.91304220230696E-08   3.00000000000000E+02
      3.20807038575305E-09   3.00000000000000E+02   2.76386432502169E-09   2.99999999999922E+02   3.00000000003975E+02
      3.00000000164146E+02
      1.90000000000000E-07
      7.70712404745964E-12   7.70719956143238E-12   0.00000000000000E+00  -1.96271151874466E-08   1.96266591425077E-08
      2.78695385602142E-22  -4.56044938578266E-13  -3.23813250214910E-08   0.00000000000000E+00   1.69764627161009E-15
      0.00000000000000E+00  -1.23341938281520E-12  -1.48795567425092E-12  -1.67793425599550E-06  -1.67793697737056E-06
     -5.89529251076691E-08   2.49999999983221E+02   2.49999999983219E+02   0.00000000000000E+00   4.41881302064195E-10
      1.23155730947309E-06   4.45938258699473E-07   1.67793744947463E-06  -5.91304220230697E-08   3.00000000000000E+02
      3.63358491986448E-09   3.00000000000000E+02   3.08828232720188E-09   2.99999999999916E+02   3.00000000004535E+02
      3.00000000173224E+02
      2.13750000000000E-07
      8.75876365812516E-12   8.75878720341372E-12   0.00000000000000E+00  -6.16073114670018E-10   6.15570528911632E-10
      2.74390327838923E-22  -5.02585758111109E-13  -3.23813250215030E-08   0.00000000000000E+00   1.62390712775889E-15
      0.00000000000000E+00   7.76648107891590E-11  -9.28551436170622E-12  -1.67800531378712E-06  -1.67793693449069E-06
     -5.89529251076568E-08   2.49999999983221E+02   2.49999999983219E+02   0.00000000000000E+00  -5.59563270489587E-11
      1.23155730948605E-06   4.46436065126282E-07   1.67793741828529E-06  -5.91304220230704E-08   3.00000000000000E+02
      4.06517856890139E-09   3.00000000000000E+02   3.46860891792348E-09   2.99999999999910E+02   3.00000000005092E+02
      3.00000000181488E+02
      2.37500000000000E-07
      9.67089303825775E-12   9.67079537870778E-12   0.00000000000000E+00   2.38514396775371E-09  -2.38569167474719E-09
      2.83589295239647E-22  -5.47706993202386E-13  -3.23813250215160E-08   0.00000000000000E+00   1.65254688452252E-15
      0.00000000000000E+00   2.59823958634725E-11  -4.94780501961566E-11  -1.67791339507066E-06  -1.67793689072500E-06
     -5.89529251076434E-08   2.49999999983221E+02   2.49999999983219E+02   0.00000000000000E+00   2.49572107696859E-10
      1.23155730949916E-06   4.46130554000787E-07   1.67793743560765E-06  -5.91304220230708E-08   3.00000000000000E+02
      4.50011935662948E-09   3.00000000000000E+02   3.83944608139080E-09   2.99999999999905E+02   3.00000000005652E+02
      3.00000000189079E+02
      2.61250000000000E-07
      1.04800964227099E-11   1.04801117017007E-11   0.00000000000000E+00  -2.41059366077399E-09   2.41001514327562E-09
      2.84916912816769E-22  -5.78517498088042E-13  -3.23813250215298E-08   0.00000000000000E+00   1.68579533777686E-15
      0.00000000000000E+00   7.56472027645129E-11  -9.20732819631122E-12  -1.67800330160151E-06  -1.67793686172695E-06
     -5.89529251076293E-08   2.49999999983221E+02   2.49999999983219E+02   0.00000000000000E+00   1.48436299484552E-11
      1.23155730951288E-06   4.46365288178101E-07   1.67793744132093E-06  -5.91304220230710E-08   3.00000000000000E+02
      4.86663190162319E-09   3.00000000000000E+02   4.29933790569162E-09   2.99999999999900E+02   3.00000000006212E+02
      3.00000000196106E+02
      2.85000000000000E-07
      1.12163030622394E-11   1.12164120876872E-11   0.00000000000000E+00  -1.28755864768730E-08   1.28749885806749E-08
      2.81346692849105E-22  -5.97896197790776E-13  -3.23813250215439E-08   0.00000000000000E+00   1.66472701096223E-15
      0.00000000000000E+00  -1.10011751707443E-10   1.86997088850192E-11  -1.67784553057392E-06  -1.67793684261674E-06
     -5.89529251076148E-08   2.49999999983221E+02   2.49999999983219E+02   0.00000000000000E+00   6.53690365748928E-10
      1.23155730952662E-06   4.45726424352864E-07   1.67793742424523E-06  -5.91304220230715E-08   3.00000000000000E+02
      5.24024653678418E-09   3.00000000000000E+02   4.67765470538344E-09   2.99999999999896E+02   3.00000000006771E+02
      3.00000000202654E+02
      3.08750000000000E-07
      1.18260560490778E-11   1.18260365634905E-11   0.00000000000000E+00  -6.25636292541404E-09   6.25572426204593E-09
      2.84772099091525E-22  -6.38663367827859E-13  -3.23813250215591E-08   0.00000000000000E+00   1.60843507525439E-15
      0.00000000000000E+00   1.61120218314677E-10  -1.65097596672944E-10  -1.67793282754062E-06  -1.67793680491898E-06
     -5.89529251075993E-08   2.49999999983221E+02   2.49999999983219E+02   0.00000000000000E+00   1.04496452774271E-10
      1.23155730954113E-06   4.46275653346438E-07   1.67793745934034E-06  -5.91304220230716E-08   3.00000000000000E+02
      5.62263678651489E-09   3.00000000000000E+02   4.97303484868956E-09   2.99999999999891E+02   3.00000000007325E+02
      3.00000000208789E+02
      3.32500000000000E-07
      1.23195057731697E-11   1.23196095521702E-11   0.00000000000000E+00  -7.05053281607743E-09   7.04985660807540E-09
      2.76445627068381E-22  -6.76208001757147E-13  -3.23813250215751E-08   0.00000000000000E+00   1.67229844091124E-15
      0.00000000000000E+00  -3.22522797097820E-11   4.37245456246046E-12  -1.67790888879656E-06  -1.67793676862171E-06
     -5.89529251075829E-08   2.49999999983221E+02   2.49999999983219E+02   0.00000000000000E+00   3.95404418192714E-10
      1.23155730955558E-06   4.45984743586487E-07   1.67793745756026E-06  -5.91304220230715E-08   3.00000000000000E+02
      5.97333138747700E-09   3.00000000000000E+02   5.34600721732356E-09   2.99999999999887E+02   3.00000000007883E+02
      3.00000000214567E+02
      3.56250000000000E-07
      1.27450929180048E-11   1.27450733774751E-11   0.00000000000000E+00  -6.89870079121032E-11   6.82927859259052E-11
      2.80518857814813E-22  -6.94221985917482E-13  -3.23813250215917E-08   0.00000000000000E+00   1.62654066861072E-15
      0.00000000000000E+00   1.21883328161206E-10  -4.04096355831158E-11  -1.67801822356233E-06  -1.67793674986976E-06
     -5.89529251075662E-08   2.49999999983221E+02   2.49999999983219E+02   0.00000000000000E+00   9.50646405913878E-11
      1.23155730957054E-06   4.46285057171791E-07   1.67793743138292E-06  -5.91304220230719E-08   3.00000000000000E+02
      6.29632194406064E-09   3.00000000000000E+02   5.80120621309913E-09   2.99999999999883E+02   3.00000000008442E+02
      3.00000000220031E+02
      3.80000000000000E-07
      1.31585685750176E-11   1.31585841763986E-11   0.00000000000000E+00   4.36642705660138E-09  -4.36711776077090E-09
      2.70782620066938E-22  -6.90704169254456E-13  -3.23813250216081E-08   0.00000000000000E+00   1.59691333402764E-15
      0.00000000000000E+00  -6.51739004454535E-11  -2.84890256785132E-12  -1.67786873342917E-06  -1.67793675623218E-06
     -5.89529251075496E-08   2.49999999983221E+02   2.49999999983219E+02   0.00000000000000E+00   8.75303184575605E-10
      1.23155730958526E-06   4.45504822952814E-07   1.67793743572265E-06  -5.91304220230722E-08   3.00000000000000E+02
      6.72259237338380E-09   3.00000000000000E+02   6.03322920146431E-09   2.99999999999880E+02   3.00000000009001E+02
      3.00000000225218E+02
      4.03750000000000E-07
      1.34596865760734E-11   1.34597619419083E-11   0.00000000000000E+00   1.12977452501411E-09  -1.13050172096685E-09
      2.74893559742188E-22  -7.27195952465261E-13  -3.23813250216254E-08   0.00000000000000E+00   1.67196924830476E-15
      0.00000000000000E+00  -2.11004289896804E-12   5.81556628859861E-11  -1.67799276353496E-06  -1.67793671791497E-06
     -5.89529251075321E-08   2.49999999983221E+02   2.49999999983219E+02   0.00000000000000E+00  -5.44785989008802E-10
      1.23155730960122E-06   4.46924926474255E-07   1.67793745008647E-06  -5.91304220230723E-08   3.00000000000000E+02
      7.05580034526604E-09   3.00000000000000E+02   6.34682132171241E-09   2.99999999999876E+02   3.00000000009564E+02
      3.00000000230160E+02
      4.27500000000000E-07
      1.37254101373394E-11   1.37253769219125E-11   0.00000000000000E+00   1.10897142588541E-08  -1.10904482368723E-08
      2.65101446555629E-22  -7.33978017883549E-13  -3.23813250216428E-08   0.00000000000000E+00   1.61798166084227E-15
      0.00000000000000E+00  -7.53621544416417E-11   4.54430421261038E-11  -1.67790679471881E-06  -1.67793671383112E-06
     -5.89529251075143E-08   2.49999999983221E+02   2.49999999983219E+02   0.00000000000000E+00  -8.35599422037128E-10
      1.23155730961687E-06   4.47215749708855E-07   1.67793745990369E-06  -5.91304220230724E-08   3.00000000000000E+02
      7.28036490875077E-09   3.00000000000000E+02   6.67598462432249E-09   2.99999999999873E+02   3.00000000010124E+02
      3.00000000234882E+02
      4.51250000000000E-07
      1.39417681818122E-11   1.39417952055241E-11   0.00000000000000E+00   1.13744356602566E-08  -1.13751811256735E-08
      2.69028224080499E-22  -7.45465416577865E-13  -3.23813250216604E-08   0.00000000000000E+00   1.69336676772587E-15
      0.00000000000000E+00  -1.92029413438693E-10  -2.69972668316909E-11  -1.67771767749968E-06  -1.67793670417995E-06
     -5.89529251074964E-08   2.49999999983221E+02   2.49999999983219E+02   0.00000000000000E+00   5.43137322905188E-10
      1.23155730963197E-06   4.45837000898253E-07   1.67793744785313E-06  -5.91304220230726E-08   3.00000000000000E+02
      7.64520569592494E-09   3.00000000000000E+02   6.93154289922973E-09   2.99999999999870E+02   3.00000000010681E+02
      3.00000000239407E+02
      4.75000000000000E-07
      1.41475713994799E-11   1.41476714747102E-11   0.00000000000000E+00  -1.34705363185596E-08   1.34697946847105E-08
      2.59700012996347E-22  -7.41633848830532E-13  -3.23813250216780E-08   0.00000000000000E+00   1.69435434554531E-15
      0.00000000000000E+00   1.34666994252024E-11  -1.64765280472721E-11  -1.67793369519033E-06  -1.67793670501895E-06
     -5.89529251074785E-08   2.49999999983221E+02   2.49999999983219E+02   0.00000000000000E+00   1.01923613979222E-09
      1.23155730964763E-06   4.45360894581095E-07   1.67793744036851E-06  -5.91304220230726E-08   3.00000000000000E+02
      7.82663487244049E-09   3.00000000000000E+02   7.10826076594448E-09   2.99999999999867E+02   3.00000000011238E+02
      3.00000000243754E+02
      4.98750000000000E-07
      1.42979299291265E-11   1.42978898331485E-11   0.00000000000000E+00   1.25796339827096E-08  -1.25803920661825E-08
      2.63363584476622E-22  -7.58083472650459E-13  -3.23813250216961E-08   0.00000000000000E+00   1.67855310043433E-15
      0.00000000000000E+00   8.81677387108682E-11  -4.59689382947536E-11  -1.67797889151636E-06  -1.67793669271594E-06
     -5.89529251074603E-08   2.49999999983221E+02   2.49999999983219E+02   0.00000000000000E+00   7.47178355097157E-10
      1.23155730966381E-06   4.45632956908963E-07   1.67793744492787E-06  -5.91304220230729E-08   3.00000000000000E+02
      8.05729033630288E-09   3.00000000000000E+02   7.30864715303552E-09   2.99999999999864E+02   3.00000000011796E+02
      3.00000000247939E+02
      5.22500000000000E-07
      1.44058991702973E-11   1.44059206326050E-11   0.00000000000000E+00  -1.38788653433001E-08   1.38780972379288E-08
      2.54652578837434E-22  -7.68105371026048E-13  -3.23813250217143E-08   0.00000000000000E+00   1.63444129116620E-15
      0.00000000000000E+00   1.00811759358900E-10  -1.56870155099394E-11  -1.67802180646603E-06  -1.67793668172218E-06
     -5.89529251074419E-08   2.49999999983221E+02   2.49999999983219E+02   0.00000000000000E+00  -2.10821494418579E-10
      1.23155730968044E-06   4.46590971587477E-07   1.67793745977350E-06  -5.91304220230726E-08   3.00000000000000E+02
      8.13483899314276E-09   3.00000000000000E+02   7.47662134860486E-09   2.99999999999862E+02   3.00000000012354E+02
      3.00000000251977E+02
      5.46250000000000E-07
      1.45074274762065E-11   1.45074298266463E-11   0.00000000000000E+00  -1.39632304652915E-08   1.39624666806958E-08
      2.58053271722687E-22  -7.63784595460221E-13  -3.23813250217324E-08   0.00000000000000E+00   1.70126739028136E-15
      0.00000000000000E+00  -1.05356979515607E-10   6.26947320002025E-12  -1.67783760048935E-06  -1.67793668799567E-06
     -5.89529251074237E-08   2.49999999983221E+02   2.49999999983219E+02   0.00000000000000E+00  -5.19279835294457E-12
      1.23155730969673E-06   4.46385322839358E-07   1.67793743973773E-06  -5.91304220230730E-08   3.00000000000000E+02
      8.27577578486224E-09   3.00000000000000E+02   7.49550251637150E-09   2.99999999999859E+02   3.00000000012911E+02
      3.00000000255879E+02
      5.70000000000000E-07
      1.45693037628598E-11   1.45693941996578E-11   0.00000000000000E+00   3.89103049113996E-09  -3.89180367598728E-09
      2.49977237898465E-22  -7.73184847065323E-13  -3.23813250217507E-08   0.00000000000000E+00   1.64431706936056E-15
      0.00000000000000E+00  -3.41780095401633E-11  -2.53098846132911E-11  -1.67787718897003E-06  -1.67793667686418E-06
     -5.89529251074052E-08   2.49999999983221E+02   2.49999999983219E+02   0.00000000000000E+00  -3.17893788572736E-10
      1.23155730971333E-06   4.46698039557151E-07   1.67793745548191E-06  -5.91304220230729E-08   3.00000000000000E+02
      8.29668857832735E-09   3.00000000000000E+02   7.60273210170973E-09   2.99999999999857E+02   3.00000000013472E+02
      3.00000000259658E+02
      5.93750000000000E-07
      1.46458476667441E-11   1.46458970913104E-11   0.00000000000000E+00  -7.56126785323692E-09   7.56050680980372E-09
      2.53126064947884E-22  -7.61043432952343E-13  -3.23813250217689E-08   0.00000000000000E+00   1.62917420946254E-15
      0.00000000000000E+00   3.93375750894288E-11   4.63574981971010E-12  -1.67798066353476E-06  -1.67793669020985E-06
     -5.89529251073869E-08   2.49999999983221E+02   2.49999999983219E+02   0.00000000000000E+00  -5.91999815001380E-11
      1.23155730972981E-06   4.46439344610092E-07   1.67793745435840E-06  -5.91304220230731E-08   3.00000000000000E+02
      8.32096627854821E-09   3.00000000000000E+02   7.56702679986466E-09   2.99999999999855E+02   3.00000000014029E+02
      3.00000000263323E+02
      6.17500000000000E-07
      1.47095488387158E-11   1.47096373389324E-11   0.00000000000000E+00   4.38741753160303E-09  -4.38817707298232E-09
      2.45643423295881E-22  -7.59541379047816E-13  -3.23813250217869E-08   0.00000000000000E+00   1.66341024053632E-15
      0.00000000000000E+00  -1.37607696361486E-10   1.10738263877197E-10  -1.67790982198199E-06  -1.67793669141447E-06
     -5.89529251073688E-08   2.49999999983221E+02   2.49999999983219E+02   0.00000000000000E+00  -3.04150764279722E-10
      1.23155730974673E-06   4.46684294720118E-07   1.67793745370257E-06  -5.91304220230730E-08   3.00000000000000E+02
      8.30406972471273E-09   3.00000000000000E+02   7.51245475588750E-09   2.99999999999852E+02   3.00000000014585E+02
      3.00000000266882E+02
      6.41250000000000E-07
      1.47227246901214E-11   1.47226509833065E-11   0.00000000000000E+00   1.04339361104237E-08  -1.04347114681806E-08
      2.48566491947123E-22  -7.75357756632457E-13  -3.23813250218054E-08   0.00000000000000E+00   1.62357793515241E-15
      0.00000000000000E+00  -2.75933275451881E-11  -9.02487197502398E-11  -1.67781883602166E-06  -1.67793667806895E-06
     -5.89529251073500E-08   2.49999999983221E+02   2.49999999983219E+02   0.00000000000000E+00   5.62491965008362E-10
      1.23155730976321E-06   4.45817639254323E-07   1.67793744098254E-06  -5.91304220230728E-08   3.00000000000000E+02
      8.25085868918759E-09   3.00000000000000E+02   7.30541227868874E-09   2.99999999999850E+02   3.00000000015140E+02
      3.00000000270344E+02
      6.65000000000000E-07
      1.47067302692041E-11   1.47067599565489E-11   0.00000000000000E+00  -6.65533044326103E-09   6.65454961388024E-09
      2.41631168075061E-22  -7.80829380544273E-13  -3.23813250218239E-08   0.00000000000000E+00   1.60185122312482E-15
      0.00000000000000E+00   4.27103003435795E-11   9.24906800980564E-11  -1.67807187143088E-06  -1.67793667045043E-06
     -5.89529251073315E-08   2.49999999983221E+02   2.49999999983219E+02   0.00000000000000E+00   6.27079670246043E-10
      1.23155730978022E-06   4.45753044709762E-07   1.67793743416022E-06  -5.91304220230730E-08   3.00000000000000E+02
      7.93255752881294E-09   3.00000000000000E+02   7.19686901744306E-09   2.99999999999848E+02   3.00000000015698E+02
      3.00000000273714E+02
      6.88750000000000E-07
      1.46867007113821E-11   1.46866730092628E-11   0.00000000000000E+00   1.07313553945285E-09  -1.07391307381988E-09
      2.44347987601415E-22  -7.77534366780567E-13  -3.23813250218424E-08   0.00000000000000E+00   1.65945992925857E-15
      0.00000000000000E+00   2.53797985540791E-11   5.68347924275895E-12  -1.67796773958035E-06  -1.67793667630255E-06
     -5.89529251073127E-08   2.49999999983221E+02   2.49999999983219E+02   0.00000000000000E+00   1.11297665972537E-09
      1.23155730979712E-06   4.45267192825172E-07   1.67793747928201E-06  -5.91304220230729E-08   3.00000000000000E+02
      7.73826977191084E-09   3.00000000000000E+02   6.84624278059697E-09   2.99999999999846E+02   3.00000000016258E+02
      3.00000000276999E+02
      7.12500000000000E-07
      1.46387901108094E-11   1.46388804050171E-11   0.00000000000000E+00  -3.16364602686819E-09   3.16286269928194E-09
      2.37904422200746E-22  -7.83327586013193E-13  -3.23813250218609E-08   0.00000000000000E+00   1.63444129116620E-15
      0.00000000000000E+00  -1.82753465740580E-10   1.15959078583788E-10  -1.67786987569402E-06  -1.67793667008118E-06
     -5.89529251072941E-08   2.49999999983221E+02   2.49999999983219E+02   0.00000000000000E+00  -7.21891456340756E-10
      1.23155730981522E-06   4.47102046382440E-07   1.67793746474132E-06  -5.91304220230727E-08   3.00000000000000E+02
      7.36197638578617E-09   3.00000000000000E+02   6.53872218646772E-09   2.99999999999844E+02   3.00000000016817E+02
      3.00000000280205E+02
      7.36250000000000E-07
      1.46110123308492E-11   1.46110696927760E-11   0.00000000000000E+00   1.44999314828646E-09  -1.45076393983623E-09
      2.40429089725237E-22  -7.70791549536999E-13  -3.23813250218793E-08   0.00000000000000E+00   1.67954067825377E-15
      0.00000000000000E+00  -7.01352353021755E-12  -8.63089112413366E-11  -1.67784336151993E-06  -1.67793668395470E-06
     -5.89529251072757E-08   2.49999999983221E+02   2.49999999983219E+02   0.00000000000000E+00  -1.69673734528962E-10
      1.23155730983234E-06   4.46549815468484E-07   1.67793745156630E-06  -5.91304220230724E-08   3.00000000000000E+02
      6.94047384492761E-09   3.00000000000000E+02   6.20969730817026E-09   2.99999999999843E+02   3.00000000017378E+02
      3.00000000283336E+02
      7.60000000000000E-07
      1.45398631766577E-11   1.45397799335702E-11   0.00000000000000E+00  -8.53663689840178E-09   8.53585499981290E-09
      2.34423568576892E-22  -7.81898588640544E-13  -3.23813250218979E-08   0.00000000000000E+00   1.69106241948052E-15
      0.00000000000000E+00  -1.10026832959844E-10   7.53348716588637E-11  -1.67790197817333E-06  -1.67793667013463E-06
     -5.89529251072569E-08   2.49999999983221E+02   2.49999999983219E+02   0.00000000000000E+00  -7.17324097863226E-10
      1.23155730985006E-06   4.47097459446220E-07   1.67793744519842E-06  -5.91304220230727E-08   3.00000000000000E+02
      6.38810539205366E-09   3.00000000000000E+02   5.59806723533771E-09   2.99999999999841E+02   3.00000000017935E+02
      3.00000000286397E+02
      7.83750000000000E-07
      1.44993689379769E-11   1.44993361664482E-11   0.00000000000000E+00  -1.63783318111012E-08   1.63775661480247E-08
      2.36790113327230E-22  -7.65663076299453E-13  -3.23813250219161E-08   0.00000000000000E+00   1.64793818803182E-15
      0.00000000000000E+00  -6.86679694143461E-11  -4.47039895314783E-11  -1.67782331780114E-06  -1.67793668976009E-06
     -5.89529251072385E-08   2.49999999983221E+02   2.49999999983219E+02   0.00000000000000E+00   1.11602531686041E-09
      1.23155730986680E-06   4.45264126445812E-07   1.67793746162947E-06  -5.91304220230726E-08   3.00000000000000E+02
      5.72575689633176E-09   3.00000000000000E+02   5.12401511996748E-09   2.99999999999840E+02   3.00000000018488E+02
      3.00000000289392E+02
      8.07500000000000E-07
      1.44386345394756E-11   1.44386010031388E-11   0.00000000000000E+00  -1.21681192785996E-08   1.21673509430842E-08
      2.31165512447229E-22  -7.68335515146454E-13  -3.23813250219343E-08   0.00000000000000E+00   1.68908726384165E-15
      0.00000000000000E+00  -1.51353828146486E-11  -1.20419677455957E-10  -1.67780112983951E-06  -1.67793668489978E-06
     -5.89529251072202E-08   2.49999999983221E+02   2.49999999983219E+02   0.00000000000000E+00  -1.53223024757564E-10
      1.23155730988511E-06   4.46533365448149E-07   1.67793745230851E-06  -5.91304220230726E-08   3.00000000000000E+02
      5.03988498940631E-09   3.00000000000000E+02   4.47523980103005E-09   2.99999999999838E+02   3.00000000019044E+02
      3.00000000292325E+02
      8.31250000000000E-07
      1.43925722566556E-11   1.43926736019467E-11   0.00000000000000E+00   5.83893416280777E-09  -5.83969350146854E-09
      2.33385113012337E-22  -7.59338660535414E-13  -3.23813250219523E-08   0.00000000000000E+00   1.68447856735095E-15
      0.00000000000000E+00  -1.35931185495873E-10   4.30003892891018E-11  -1.67784376657766E-06  -1.67793669737387E-06
     -5.89529251072021E-08   2.49999999983221E+02   2.49999999983219E+02   0.00000000000000E+00  -3.64314929866648E-10
      1.23155730990305E-06   4.46744465789594E-07   1.67793746076278E-06  -5.91304220230725E-08   3.00000000000000E+02
      4.12130742175827E-09   3.00000000000000E+02   3.67139918233950E-09   2.99999999999837E+02   3.00000000019601E+02
      3.00000000295199E+02
      8.55000000000000E-07
      1.43395934785878E-11   1.43395433086928E-11   0.00000000000000E+00  -1.86538164459076E-10   1.85781592239098E-10
      2.28104022156228E-22  -7.56572219750002E-13  -3.23813250219702E-08   0.00000000000000E+00   1.64596303239295E-15
      0.00000000000000E+00   1.57419890444024E-10  -7.28065024164936E-11  -1.67802131043048E-06  -1.67793669704246E-06
     -5.89529251071840E-08   2.49999999983221E+02   2.49999999983219E+02   0.00000000000000E+00  -3.27942975662643E-10
      1.23155730992089E-06   4.46708083595616E-07   1.67793745054085E-06  -5.91304220230725E-08   3.00000000000000E+02
      3.11163767485216E-09   3.00000000000000E+02   2.82039373613928E-09   2.99999999999836E+02   3.00000000020160E+02
      3.00000000298017E+02
      8.78750000000000E-07
      1.43047061096922E-11   1.43047876245423E-11   0.00000000000000E+00  -1.22355747797972E-09   1.22281291967520E-09
      2.30199753044258E-22  -7.44558304294976E-13  -3.23813250219880E-08   0.00000000000000E+00   1.67756552261490E-15