DF-ISE text

Info {
  version   = 1.0
  type      = xyplot
  datasets  = [
    "time"
    "gate OuterVoltage" "gate InnerVoltage" "gate QuasiFermiPotential" "gate DisplacementCurrent" "gate eCurrent"
    "gate hCurrent" "gate TotalCurrent" "gate Charge" "emitter OuterVoltage" "emitter InnerVoltage"
    "emitter QuasiFermiPotential" "emitter DisplacementCurrent" "emitter eCurrent" "emitter hCurrent" "emitter TotalCurrent"
    "emitter Charge" "collector OuterVoltage" "collector InnerVoltage" "collector QuasiFermiPotential" "collector DisplacementCurrent"
    "collector eCurrent" "collector hCurrent" "collector TotalCurrent" "collector Charge" "thermode_left Temperature"
    "thermode_left lHeatFlux" "thermode_right Temperature" "thermode_right lHeatFlux" "Tmin" "Tave"
    "Tmax" ]
  functions = [
    Time
    OuterVoltage InnerVoltage QuasiFermiPotential DisplacementCurrent eCurrent
    hCurrent TotalCurrent Charge OuterVoltage InnerVoltage
    QuasiFermiPotential DisplacementCurrent eCurrent hCurrent TotalCurrent
    Charge OuterVoltage InnerVoltage QuasiFermiPotential DisplacementCurrent
    eCurrent hCurrent TotalCurrent Charge Temperature
    lHeatFlux Temperature lHeatFlux MinTemperature AveTemperature
    MaxTemperature ]
}

Data {
      0.00000000000000E+00
     -3.77114457306953E-16  -3.67378948830107E-16   0.00000000000000E+00   0.00000000000000E+00   0.00000000000000E+00
      0.00000000000000E+00   0.00000000000000E+00  -4.88335772211584E-08   0.00000000000000E+00   7.34757897660214E-16
      0.00000000000000E+00   2.00407546100600E-21  -4.48727063624586E-12  -7.37064917700300E-07  -7.37069404970934E-07
     -6.27077305254901E-08   2.49999999992629E+02   2.49999999992629E+02   0.00000000000000E+00  -1.05477655842421E-22
      5.59742548324273E-07   1.77326860842070E-07   7.37069409166342E-07  -6.13197678966485E-08   3.00000000000000E+02
      0.00000000000000E+00   3.00000000000000E+02   0.00000000000000E+00   3.00000000000000E+02   3.00000000000101E+02
      3.00000000000000E+02
      2.37500000000000E-08
     -1.45066281014731E-11  -1.45066510336006E-11   0.00000000000000E+00   6.07947678923618E-09  -6.07873857674161E-09
      1.16565180856211E-23   7.38212494582529E-13  -4.88335772212872E-08   0.00000000000000E+00   6.67931798545060E-16
      0.00000000000000E+00   2.10691791513753E-10  -9.70834124350098E-11  -7.37188468587775E-07  -7.37074860208696E-07
     -6.27077305253510E-08   2.49999999992522E+02   2.49999999992523E+02   0.00000000000000E+00  -1.16358791738357E-09
      5.59742544997589E-07   1.78495138499503E-07   7.37074095579708E-07  -6.13197678968566E-08   3.00000000000000E+02
      2.83946061690155E-10   3.00000000000000E+02   2.88433738329477E-10   2.99999999999989E+02   3.00000000000362E+02
      3.00000000029573E+02
      4.75000000000000E-08
     -9.70504202208625E-12  -9.70521450851308E-12   0.00000000000000E+00   2.94163421789835E-08  -2.94157008426440E-08
      1.52365889916219E-23   6.41336339445401E-13  -4.88335772212747E-08   0.00000000000000E+00   6.41596390026773E-16
      0.00000000000000E+00   2.64326699926666E-10  -1.49987243303442E-10  -7.37184906872258E-07  -7.37070567415634E-07
     -6.27077305253960E-08   2.49999999992640E+02   2.49999999992641E+02   0.00000000000000E+00  -1.35550298376277E-09
      5.59742545003930E-07   1.78682698131107E-07   7.37069740151274E-07  -6.13197678968243E-08   3.00000000000000E+02
      5.16333946868589E-10   3.00000000000000E+02   5.25062389282350E-10   2.99999999999983E+02   3.00000000000600E+02
      3.00000000040313E+02
      7.12500000000000E-08
     -7.50625075837557E-12  -7.50636531668956E-12   0.00000000000000E+00   1.51725171558187E-09  -1.51690097100159E-09
      9.48119136966634E-23   3.50744580380534E-13  -4.88335772212664E-08   0.00000000000000E+00   7.50559142771186E-16
      0.00000000000000E+00  -1.18732466843531E-10  -1.93558696668024E-11  -7.36931511823582E-07  -7.37069600160092E-07
     -6.27077305254006E-08   2.49999999992630E+02   2.49999999992629E+02   0.00000000000000E+00   3.09328997134254E-10
      5.59742545002655E-07   1.77017364294681E-07   7.37069238294470E-07  -6.13197678968282E-08   3.00000000000000E+02
      6.44630701963964E-10   3.00000000000000E+02   6.51776972980997E-10   2.99999999999979E+02   3.00000000000845E+02
      3.00000000048078E+02
      9.50000000000000E-08
     -5.30020757757352E-12  -5.30028240820064E-12   0.00000000000000E+00   3.98350908641688E-09  -3.98323019264325E-09
      1.29815468694200E-22   2.78893773761605E-13  -4.88335772212598E-08   0.00000000000000E+00   7.70310699159902E-16
      0.00000000000000E+00  -2.24687478775110E-10   2.04683480259102E-11  -7.36865428659797E-07  -7.37069647790546E-07
     -6.27077305254065E-08   2.49999999992629E+02   2.49999999992629E+02   0.00000000000000E+00  -3.34569063988979E-10
      5.59742545002442E-07   1.77661402623540E-07   7.37069378561994E-07  -6.13197678968289E-08   3.00000000000000E+02
      7.65754849010593E-10   3.00000000000000E+02   7.98134043736052E-10   2.99999999999974E+02   3.00000000001083E+02
      3.00000000054480E+02
      1.18750000000000E-07
     -3.27499720654570E-12  -3.27495497512447E-12   0.00000000000000E+00   8.21931148551622E-09  -8.21911112517174E-09
      1.06378997005293E-22   2.00360344577110E-13  -4.88335772212550E-08   0.00000000000000E+00   7.05788948290098E-16
      0.00000000000000E+00   4.47243950900913E-11  -6.16504822246422E-11  -7.37052657864668E-07  -7.37069583951803E-07
     -6.27077305254105E-08   2.49999999992629E+02   2.49999999992629E+02   0.00000000000000E+00  -2.08759132457675E-09
      5.59742545002548E-07   1.79414421239102E-07   7.37069374917074E-07  -6.13197678968295E-08   3.00000000000000E+02
      8.16813881887814E-10   3.00000000000000E+02   8.24908680569179E-10   2.99999999999971E+02   3.00000000001323E+02
      3.00000000059979E+02
      1.42500000000000E-07
     -1.48691749827960E-12  -1.48699145833156E-12   0.00000000000000E+00  -8.21339585932317E-09   8.21350819004939E-09
      1.60443124117167E-22   1.12330726380132E-13  -4.88335772212523E-08   0.00000000000000E+00   7.41341749789786E-16
      0.00000000000000E+00  -2.34717534467874E-10   9.71801856416500E-11  -7.36931960316352E-07  -7.37069497665179E-07
     -6.27077305254126E-08   2.49999999992629E+02   2.49999999992629E+02   0.00000000000000E+00  -9.22887517431027E-10
      5.59742545002068E-07   1.78249728362579E-07   7.37069385847215E-07  -6.13197678968299E-08   3.00000000000000E+02
      8.29976818826887E-10   3.00000000000000E+02   8.49192065011809E-10   2.99999999999967E+02   3.00000000001569E+02
      3.00000000064825E+02
      1.66250000000000E-07
      3.43996364201693E-14   3.44568742178429E-14   0.00000000000000E+00   3.70497106669120E-09  -3.70495440673311E-09
      1.46534323680692E-22   1.66599582410335E-14  -4.88335772212520E-08   0.00000000000000E+00   6.90316895785604E-16
      0.00000000000000E+00  -1.25207270184959E-10   4.02286823842928E-11  -7.36984423032021E-07  -7.37069401619821E-07
     -6.27077305254126E-08   2.49999999992629E+02   2.49999999992629E+02   0.00000000000000E+00  -5.19565357816496E-10
      5.59742545001760E-07   1.77846412575740E-07   7.37069392219684E-07  -6.13197678968305E-08   3.00000000000000E+02
      8.63117342941358E-10   3.00000000000000E+02   8.71539524217794E-10   2.99999999999964E+02   3.00000000001809E+02
      3.00000000069176E+02
      1.90000000000000E-07
      1.38896748104442E-12   1.38898368762799E-12   0.00000000000000E+00   9.03159424572516E-09  -9.03163859024179E-09
      1.77535563787433E-22  -4.43445164585550E-14  -4.88335772212530E-08   0.00000000000000E+00   7.61751691391458E-16
      0.00000000000000E+00   9.95045507612212E-12  -4.41491108500352E-11  -7.37035144408007E-07  -7.37069343063781E-07
     -6.27077305254112E-08   2.49999999992629E+02   2.49999999992629E+02   0.00000000000000E+00  -2.09628128865717E-09
      5.59742545001904E-07   1.79423127603487E-07   7.37069391316734E-07  -6.13197678968306E-08   3.00000000000000E+02
      8.87019923301403E-10   3.00000000000000E+02   8.74498954498824E-10   2.99999999999961E+02   3.00000000002054E+02
      3.00000000073133E+02
      2.13750000000000E-07
      2.62182280028025E-12   2.62176904372248E-12   0.00000000000000E+00   5.23514147301019E-09  -5.23522717684352E-09
      1.72984273585970E-22  -8.57038331627911E-14  -4.88335772212551E-08   0.00000000000000E+00   7.35745475479650E-16
      0.00000000000000E+00  -2.25424131414363E-11  -1.76091517525084E-11  -7.37029154138202E-07  -7.37069305703096E-07
     -6.27077305254087E-08   2.49999999992629E+02   2.49999999992629E+02   0.00000000000000E+00  -2.03190477179070E-09
      5.59742545001765E-07   1.79358744707758E-07   7.37069384937733E-07  -6.13197678968310E-08   3.00000000000000E+02
      8.39104590506920E-10   3.00000000000000E+02   7.97577259762782E-10   2.99999999999959E+02   3.00000000002302E+02
      3.00000000076772E+02
      2.37500000000000E-07
      3.65453040386866E-12   3.65456940435654E-12   0.00000000000000E+00  -1.56290939628612E-08   1.56289385930237E-08
      1.83068864958001E-22  -1.55369837241118E-13  -4.88335772212588E-08   0.00000000000000E+00   6.84062236262511E-16
      0.00000000000000E+00   1.69128452258348E-10  -1.89411773012010E-12  -7.37236468471697E-07  -7.37069234137168E-07
     -6.27077305254047E-08   2.49999999992629E+02   2.49999999992629E+02   0.00000000000000E+00  -3.07969309126623E-10
      5.59742545001325E-07   1.77634822913159E-07   7.37069398605358E-07  -6.13197678968312E-08   3.00000000000000E+02
      7.44886539583320E-10   3.00000000000000E+02   7.58429258904389E-10   2.99999999999956E+02   3.00000000002549E+02
      3.00000000080146E+02
      2.61250000000000E-07
      4.61546422585170E-12   4.61551258144948E-12   0.00000000000000E+00  -3.55856064362169E-09   3.55838321853707E-09
      1.82583180873499E-22  -1.77425084435718E-13  -4.88335772212629E-08   0.00000000000000E+00   7.09410066961363E-16
      0.00000000000000E+00   5.70872122507951E-11   1.48980617957667E-11  -7.37141200085032E-07  -7.37069214810985E-07
     -6.27077305254002E-08   2.49999999992629E+02   2.49999999992629E+02   0.00000000000000E+00   5.51585696873822E-10
      5.59742545001093E-07   1.76775250595564E-07   7.37069381293531E-07  -6.13197678968317E-08   3.00000000000000E+02
      7.09394668621942E-10   3.00000000000000E+02   6.54209915729959E-10   2.99999999999954E+02   3.00000000002793E+02
      3.00000000083298E+02
      2.85000000000000E-07
      5.45643416096386E-12   5.45644299532159E-12   0.00000000000000E+00   1.42208689113441E-08  -1.42210864211840E-08
      1.83393308611091E-22  -2.17509839696909E-13  -4.88335772212681E-08   0.00000000000000E+00   8.43062265191670E-16
      0.00000000000000E+00  -1.73286976790013E-11  -2.12578482790797E-11  -7.37030589381096E-07  -7.37069175927054E-07
     -6.27077305253945E-08   2.49999999992629E+02   2.49999999992629E+02   0.00000000000000E+00   3.16468920167122E-10
      5.59742545001050E-07   1.77010391060983E-07   7.37069404982201E-07  -6.13197678968317E-08   3.00000000000000E+02
      5.93614825824168E-10   3.00000000000000E+02   5.80125527990619E-10   2.99999999999951E+02   3.00000000003031E+02
      3.00000000086260E+02
      3.08750000000000E-07
      6.15212245601684E-12   6.15211215027041E-12   0.00000000000000E+00   7.87282502288087E-09  -7.87309166903629E-09
      1.84681827296600E-22  -2.66646155227602E-13  -4.88335772212744E-08   0.00000000000000E+00   6.97229940521655E-16
      0.00000000000000E+00   1.83376435610603E-10  -7.70781440605994E-12  -7.37244797058548E-07  -7.37069128437344E-07
     -6.27077305253880E-08   2.49999999992629E+02   2.49999999992629E+02   0.00000000000000E+00   2.80726884721359E-10
      5.59742545000971E-07   1.77046133100335E-07   7.37069404986028E-07  -6.13197678968318E-08   3.00000000000000E+02
      5.08400654575719E-10   3.00000000000000E+02   4.63827873642750E-10   2.99999999999949E+02   3.00000000003268E+02
      3.00000000089057E+02
      3.32500000000000E-07
      6.76442207787926E-12   6.76442591546797E-12   0.00000000000000E+00   2.95227198327615E-09  -2.95256444747823E-09
      1.81439135971251E-22  -2.92464201896167E-13  -4.88335772212814E-08   0.00000000000000E+00   7.01180251799398E-16
      0.00000000000000E+00  -3.88896242891042E-11  -5.05091557182528E-11  -7.36979703533981E-07  -7.37069102313988E-07
     -6.27077305253808E-08   2.49999999992629E+02   2.49999999992629E+02   0.00000000000000E+00   5.72572608643351E-10
      5.59742545000818E-07   1.76754264593376E-07   7.37069382202837E-07  -6.13197678968324E-08   3.00000000000000E+02
      2.96998451727375E-10   3.00000000000000E+02   2.62196985184404E-10   2.99999999999947E+02   3.00000000003516E+02
      3.00000000091711E+02
      3.56250000000000E-07
      7.31065767903424E-12   7.31072029959897E-12   0.00000000000000E+00   2.69238870887853E-10  -2.69551064568226E-10
      1.83496888028796E-22  -3.12193680188960E-13  -4.88335772212887E-08   0.00000000000000E+00   6.70236146790410E-16
      0.00000000000000E+00   3.47527336645369E-10  -4.49992892044785E-11  -7.37371612565137E-07  -7.37069084517696E-07
     -6.27077305253732E-08   2.49999999992629E+02   2.49999999992629E+02   0.00000000000000E+00  -8.96939446872825E-10
      5.59742545001054E-07   1.78223793051110E-07   7.37069398605291E-07  -6.13197678968324E-08   3.00000000000000E+02
      1.64806995793032E-10   3.00000000000000E+02   7.14983242537027E-11   2.99999999999945E+02   3.00000000003763E+02
      3.00000000094239E+02
      3.80000000000000E-07
      7.77319753724302E-12   7.77316169680658E-12   0.00000000000000E+00  -2.04144695061363E-08   2.04141310035858E-08
      1.78516329505028E-22  -3.38502550303798E-13  -4.88335772212969E-08   0.00000000000000E+00   6.62335524234924E-16
      0.00000000000000E+00   1.53334582126398E-10  -1.47093025928115E-10  -7.37075300316176E-07  -7.37069058759977E-07
     -6.27077305253649E-08   2.49999999992629E+02   2.49999999992629E+02   0.00000000000000E+00  -1.10310976524485E-09
      5.59742545001046E-07   1.78429979766135E-07   7.37069415001937E-07  -6.13197678968325E-08   3.00000000000000E+02
     -9.22951053279777E-11   3.00000000000000E+02  -1.13813262077893E-10   2.99999999999943E+02   3.00000000004010E+02
      3.00000000096654E+02
      4.03750000000000E-07
      8.18263154277104E-12   8.18264642505799E-12   0.00000000000000E+00  -4.13858387051032E-09   4.13823121143514E-09
      1.80866017881438E-22  -3.52659075002281E-13  -4.88335772213052E-08   0.00000000000000E+00   6.95254784882783E-16
      0.00000000000000E+00   3.16659499247555E-11  -2.05475992643789E-12  -7.37098656352054E-07  -7.37069045162055E-07
     -6.27077305253564E-08   2.49999999992629E+02   2.49999999992629E+02   0.00000000000000E+00   7.24122136270943E-10
      5.59742545000628E-07   1.76602729652594E-07   7.37069396789492E-07  -6.13197678968326E-08   3.00000000000000E+02
     -3.17782734138499E-10   3.00000000000000E+02  -3.36049452659090E-10   2.99999999999941E+02   3.00000000004259E+02
      3.00000000098970E+02
      4.27500000000000E-07
      8.53290588033501E-12   8.53288815244285E-12   0.00000000000000E+00   3.42514005090440E-09  -3.42550922489731E-09
      1.75221074068348E-22  -3.69173992734954E-13  -4.88335772213141E-08   0.00000000000000E+00   7.15664726484456E-16
      0.00000000000000E+00   3.64106212001636E-11  -3.22737057696541E-11  -7.37073163533430E-07  -7.37069026618000E-07
     -6.27077305253472E-08   2.49999999992629E+02   2.49999999992629E+02   0.00000000000000E+00  -1.33319268819642E-10
      5.59742545000794E-07   1.77460150096564E-07   7.37069375828539E-07  -6.13197678968331E-08   3.00000000000000E+02
     -5.69243773364882E-10   3.00000000000000E+02  -5.62695785628139E-10   2.99999999999939E+02   3.00000000004503E+02
      3.00000000101196E+02
      4.51250000000000E-07
      8.81812621933611E-12   8.81815161547400E-12   0.00000000000000E+00   9.86934983883819E-09  -9.86974025363901E-09
      1.77655094002089E-22  -3.90414800646321E-13  -4.88335772213233E-08   0.00000000000000E+00   7.56813802294280E-16
      0.00000000000000E+00  -1.20096653791726E-10   1.61544721834909E-10  -7.37110458809709E-07  -7.37069010741666E-07
     -6.27077305253380E-08   2.49999999992629E+02   2.49999999992629E+02   0.00000000000000E+00  -2.87192282834335E-10
      5.59742545000841E-07   1.77614048608856E-07   7.37069401326863E-07  -6.13197678968334E-08   3.00000000000000E+02
     -8.69833018051743E-10   3.00000000000000E+02  -8.41901828116196E-10   2.99999999999937E+02   3.00000000004747E+02
      3.00000000103340E+02
      4.75000000000000E-07
      9.08282767171179E-12   9.08283619570878E-12   0.00000000000000E+00  -2.36681439894611E-09   2.36642205438572E-09
      1.71840472738629E-22  -3.92344560211823E-13  -4.88335772213327E-08   0.00000000000000E+00   7.72615047405252E-16
      0.00000000000000E+00   2.41066725123343E-10  -5.75541989297574E-11  -7.37252519017081E-07  -7.37069006490888E-07
     -6.27077305253286E-08   2.49999999992629E+02   2.49999999992629E+02   0.00000000000000E+00  -5.27242818771174E-10
      5.59742545000921E-07   1.77854091856661E-07   7.37069394038812E-07  -6.13197678968336E-08   3.00000000000000E+02
     -1.15642493971821E-09   3.00000000000000E+02  -1.18232789340725E-09   2.99999999999936E+02   3.00000000004990E+02
      3.00000000105411E+02
      4.98750000000000E-07
      9.30094164009495E-12   9.30078753154350E-12   0.00000000000000E+00   1.31730036481216E-08  -1.31734084917033E-08
      1.74254235352653E-22  -4.04843581546107E-13  -4.88335772213421E-08   0.00000000000000E+00   7.37391438512043E-16
      0.00000000000000E+00   5.89954534848117E-11  -2.58625204029239E-11  -7.37102128055993E-07  -7.37068995122911E-07
     -6.27077305253187E-08   2.49999999992629E+02   2.49999999992629E+02   0.00000000000000E+00   2.83060975654776E-10
      5.59742545000810E-07   1.77043817219038E-07   7.37069423195503E-07  -6.13197678968333E-08   3.00000000000000E+02
     -1.50837002465999E-09   3.00000000000000E+02  -1.55824702703735E-09   2.99999999999934E+02   3.00000000005235E+02
      3.00000000107414E+02
      5.22500000000000E-07
      9.43075624316885E-12   9.43074657654506E-12   0.00000000000000E+00   1.82374708569508E-08  -1.82379037218803E-08
      1.68485402636534E-22  -4.32864929360565E-13  -4.88335772213525E-08   0.00000000000000E+00   7.28503238137121E-16
      0.00000000000000E+00   1.85039039816345E-11  -2.72205505411229E-11  -7.37060250845290E-07  -7.37068967491849E-07
     -6.27077305253083E-08   2.49999999992629E+02   2.49999999992629E+02   0.00000000000000E+00  -9.32507184013680E-10
      5.59742545001114E-07   1.78259336187538E-07   7.37069374004638E-07  -6.13197678968338E-08   3.00000000000000E+02
     -1.92834299831742E-09   3.00000000000000E+02  -1.97260598904283E-09   2.99999999999932E+02   3.00000000005480E+02
      3.00000000109356E+02
      5.46250000000000E-07
      9.61587359234287E-12   9.61586027346037E-12   0.00000000000000E+00   1.04475020219427E-08  -1.04479104140296E-08
      1.70844856466530E-22  -4.08392086710135E-13  -4.88335772213622E-08   0.00000000000000E+00   7.08093296535448E-16
      0.00000000000000E+00  -1.24332290249908E-10   3.66926244924076E-12  -7.36948328677092E-07  -7.37068991704893E-07
     -6.27077305252985E-08   2.49999999992629E+02   2.49999999992629E+02   0.00000000000000E+00  -6.23237768193399E-10
      5.59742545001145E-07   1.77950096826121E-07   7.37069404059072E-07  -6.13197678968339E-08   3.00000000000000E+02
     -2.39563896446861E-09   3.00000000000000E+02  -2.44406656063559E-09   2.99999999999931E+02   3.00000000005725E+02
      3.00000000111240E+02
      5.70000000000000E-07
      9.74079296017256E-12   9.74080686047516E-12   0.00000000000000E+00  -2.35802091217468E-09   2.35759565001160E-09
      1.65229321319599E-22  -4.25262162917333E-13  -4.88335772213723E-08   0.00000000000000E+00   7.87757907303267E-16
      0.00000000000000E+00  -1.81614322743802E-10  -7.79015433982395E-11  -7.36809457245501E-07  -7.37068973111643E-07
     -6.27077305252883E-08   2.49999999992629E+02   2.49999999992629E+02   0.00000000000000E+00   1.16274525734899E-10
      5.59742545001106E-07   1.77210590914658E-07   7.37069410441499E-07  -6.13197678968338E-08   3.00000000000000E+02
     -2.87244784298771E-09   3.00000000000000E+02  -2.91631900712123E-09   2.99999999999929E+02   3.00000000005970E+02
      3.00000000113072E+02
      5.93750000000000E-07
      9.88879786584459E-12   9.88880458930841E-12   0.00000000000000E+00  -8.56158730387601E-09   8.56117496830825E-09
      1.67507335933514E-22  -4.12335567585881E-13  -4.88335772213821E-08   0.00000000000000E+00   8.03888345020718E-16
      0.00000000000000E+00  -1.46613960274794E-10   9.03963356949102E-11  -7.37012769782025E-07  -7.37068987406605E-07
     -6.27077305252782E-08   2.49999999992629E+02   2.49999999992629E+02   0.00000000000000E+00  -2.32673003625135E-10
      5.59742545001319E-07   1.77559524783839E-07   7.37069396781533E-07  -6.13197678968338E-08   3.00000000000000E+02
     -3.43636290276734E-09   3.00000000000000E+02  -3.45752353204405E-09   2.99999999999928E+02   3.00000000006218E+02
      3.00000000114855E+02
      6.17500000000000E-07
      1.00224728168283E-11   1.00224311330629E-11   0.00000000000000E+00   2.08469117212381E-09  -2.08510583027675E-09
      1.62090901021565E-22  -4.14658152782499E-13  -4.88335772213920E-08   0.00000000000000E+00   6.97888325734612E-16
      0.00000000000000E+00   1.46863293884071E-10  -1.59406614656368E-11  -7.37199911722522E-07  -7.37068989090104E-07
     -6.27077305252683E-08   2.49999999992629E+02   2.49999999992629E+02   0.00000000000000E+00  -3.54159189719450E-10
      5.59742545001503E-07   1.77681021895140E-07   7.37069407706924E-07  -6.13197678968340E-08   3.00000000000000E+02
     -4.02396475430856E-09   3.00000000000000E+02  -4.05315220919959E-09   2.99999999999926E+02   3.00000000006465E+02
      3.00000000116592E+02
      6.41250000000000E-07
      1.00647658068338E-11   1.00647055041936E-11   0.00000000000000E+00   3.36145036791647E-09  -3.36189403134802E-09
      1.64272350673302E-22  -4.43663431382205E-13  -4.88335772214024E-08   0.00000000000000E+00   7.47925601919358E-16
      0.00000000000000E+00  -2.57251650963046E-10   4.69613305173820E-11  -7.36858665841820E-07  -7.37068956162265E-07
     -6.27077305252577E-08   2.49999999992629E+02   2.49999999992629E+02   0.00000000000000E+00  -2.57971811496700E-10
      5.59742545001651E-07   1.77584822675451E-07   7.37069395865605E-07  -6.13197678968342E-08   3.00000000000000E+02
     -4.70671732696173E-09   3.00000000000000E+02  -4.71866184715271E-09   2.99999999999925E+02   3.00000000006710E+02
      3.00000000118287E+02
      6.65000000000000E-07
      1.01388257531666E-11   1.01388015604725E-11   0.00000000000000E+00   2.28263129532584E-09  -2.28305930331500E-09
      1.59073461653253E-22  -4.28007988998798E-13  -4.88335772214126E-08   0.00000000000000E+00   7.43975290641615E-16
      0.00000000000000E+00   1.21388223033842E-10  -9.75389816519396E-12  -7.37180608426924E-07  -7.37068974102056E-07
     -6.27077305252472E-08   2.49999999992629E+02   2.49999999992629E+02   0.00000000000000E+00  -6.26351039390624E-10
      5.59742545001923E-07   1.77953195524115E-07   7.37069389486647E-07  -6.13197678968344E-08   3.00000000000000E+02
     -5.41155607291736E-09   3.00000000000000E+02  -5.44393526764282E-09   2.99999999999923E+02   3.00000000006956E+02
      3.00000000119943E+02
      6.88750000000000E-07
      1.01187013147091E-11   1.01187517285254E-11   0.00000000000000E+00  -2.77109557095011E-08   2.77104964607112E-08
      1.61168700344422E-22  -4.59248789739700E-13  -4.88335772214235E-08   0.00000000000000E+00   6.83403851049554E-16
      0.00000000000000E+00  -7.67886704322893E-11   1.48709429952298E-11  -7.37007025569908E-07  -7.37068943297345E-07
     -6.27077305252362E-08   2.49999999992629E+02   2.49999999992629E+02   0.00000000000000E+00  -1.76755174363161E-09
      5.59742545002410E-07   1.79094439957154E-07   7.37069433215932E-07  -6.13197678968341E-08   3.00000000000000E+02
     -6.17314415077417E-09   3.00000000000000E+02  -6.15649847355829E-09   2.99999999999922E+02   3.00000000007199E+02
      3.00000000121561E+02
      7.12500000000000E-07
      1.01017364989854E-11   1.01016805598021E-11   0.00000000000000E+00   1.57009461612795E-08  -1.57014005145194E-08
      1.56180448081285E-22  -4.54353239721870E-13  -4.88335772214343E-08   0.00000000000000E+00   7.34757897660214E-16
      0.00000000000000E+00   9.69950521771557E-11   3.45689219274401E-11  -7.37200511954806E-07  -7.37068947980702E-07
     -6.27077305252254E-08   2.49999999992629E+02   2.49999999992629E+02   0.00000000000000E+00  -6.28267190491830E-10
      5.59742545002451E-07   1.77955108946863E-07   7.37069386758822E-07  -6.13197678968344E-08   3.00000000000000E+02
     -6.91494879021638E-09   3.00000000000000E+02  -6.92034532267064E-09   2.99999999999921E+02   3.00000000007444E+02
      3.00000000123144E+02
      7.36250000000000E-07
      1.01363461327406E-11   1.01363355921858E-11   0.00000000000000E+00   3.07174860870846E-09  -3.07217849449395E-09
      1.58187010390436E-22  -4.29885785333135E-13  -4.88335772214446E-08   0.00000000000000E+00   7.55167839261887E-16
      0.00000000000000E+00  -1.00718211764925E-11   2.81835859685605E-11  -7.37087081745803E-07  -7.37068969981011E-07
     -6.27077305252149E-08   2.49999999992629E+02   2.49999999992629E+02   0.00000000000000E+00  -5.41179877061125E-10
      5.59742545002705E-07   1.77868024365901E-07   7.37069389491545E-07  -6.13197678968345E-08   3.00000000000000E+02
     -7.82416314184098E-09   3.00000000000000E+02  -7.82074938623269E-09   2.99999999999919E+02   3.00000000007690E+02
      3.00000000124694E+02
      7.60000000000000E-07
      1.01008888693235E-11   1.01008954760210E-11   0.00000000000000E+00  -1.05455456489854E-08   1.05450923831856E-08
      1.53408096766285E-22  -4.53265799623592E-13  -4.88335772214553E-08   0.00000000000000E+00   7.66689580488637E-16
      0.00000000000000E+00   7.27012846995331E-12  -1.00349410410426E-11  -7.37066184846440E-07  -7.37068949659012E-07
     -6.27077305252041E-08   2.49999999992629E+02   2.49999999992629E+02   0.00000000000000E+00   4.34471940889532E-10
      5.59742545002857E-07   1.76892383474402E-07   7.37069400418148E-07  -6.13197678968346E-08   3.00000000000000E+02
     -8.75072070126241E-09   3.00000000000000E+02  -8.72625521226883E-09   2.99999999999918E+02   3.00000000007936E+02
      3.00000000126213E+02
      7.83750000000000E-07
      1.01282066627335E-11   1.01282104783107E-11   0.00000000000000E+00  -1.70941612827338E-08   1.70937353015987E-08
      1.55333251963674E-22  -4.25981134959396E-13  -4.88335772214653E-08   0.00000000000000E+00   7.89733062942139E-16
      0.00000000000000E+00  -9.71210614019321E-11   4.08285724064660E-11  -7.37012682063875E-07  -7.37068974552871E-07
     -6.27077305251939E-08   2.49999999992629E+02   2.49999999992629E+02   0.00000000000000E+00  -1.62519936614057E-09
      5.59742545003626E-07   1.78952076650677E-07   7.37069422288162E-07  -6.13197678968344E-08   3.00000000000000E+02
     -9.70675104598999E-09   3.00000000000000E+02  -9.75154639984504E-09   2.99999999999917E+02   3.00000000008182E+02
      3.00000000127702E+02
      8.07500000000000E-07
      1.01184574156944E-11   1.01184107706653E-11   0.00000000000000E+00  -1.93332833329360E-09   1.93289103871967E-09
      1.50753392153868E-22  -4.37294573779363E-13  -4.88335772214758E-08   0.00000000000000E+00   6.65298257693231E-16
      0.00000000000000E+00   1.90414660634922E-10  -1.40161769771555E-10  -7.37119221687476E-07  -7.37068968796613E-07
     -6.27077305251834E-08   2.49999999992629E+02   2.49999999992629E+02   0.00000000000000E+00  -4.75008778783416E-10
      5.59742545003789E-07   1.77801855996658E-07   7.37069392221663E-07  -6.13197678968347E-08   3.00000000000000E+02
     -1.07440921205783E-08   3.00000000000000E+02  -1.07910159837767E-08   2.99999999999916E+02   3.00000000008426E+02
      3.00000000129164E+02
      8.31250000000000E-07
      1.01120954771110E-11   1.01120835489747E-11   0.00000000000000E+00  -4.04724508029374E-09   4.04681487827300E-09
      1.52594383452678E-22  -4.30202020588138E-13  -4.88335772214861E-08   0.00000000000000E+00   7.57472187507237E-16
      0.00000000000000E+00  -1.98407036459418E-12  -7.10193549444170E-11  -7.36995965785258E-07  -7.37068969210567E-07
     -6.27077305251732E-08   2.49999999992629E+02   2.49999999992629E+02   0.00000000000000E+00  -1.86706284446549E-09
      5.59742545004495E-07   1.79193922819604E-07   7.37069404979634E-07  -6.13197678968348E-08   3.00000000000000E+02
     -1.19085790904364E-08   3.00000000000000E+02  -1.19207726766440E-08   2.99999999999915E+02   3.00000000008669E+02
      3.00000000130598E+02
      8.55000000000000E-07
      1.01093751025235E-11   1.01094169062280E-11   0.00000000000000E+00   7.59060001951416E-10  -7.59487685706158E-10
      1.48206370566741E-22  -4.27683754593928E-13  -4.88335772214961E-08   0.00000000000000E+00   6.72869687642239E-16
      0.00000000000000E+00   1.88330124355030E-10   7.83572592644830E-11  -7.37335664444778E-07  -7.37068977061158E-07
     -6.27077305251629E-08   2.49999999992629E+02   2.49999999992629E+02   0.00000000000000E+00  -4.36537599234455E-10
      5.59742545004673E-07   1.77763413065084E-07   7.37069420470523E-07  -6.13197678968345E-08   3.00000000000000E+02
     -1.30526578788545E-08   3.00000000000000E+02  -1.30386896589932E-08   2.99999999999914E+02   3.00000000008912E+02
      3.00000000132008E+02
      8.78750000000000E-07
      1.00573185895025E-11   1.00573667322466E-11   0.00000000000000E+00  -1.20734671169216E-08   1.20730263602266E-08
      1.49975679836883E-22  -4.40756694809774E-13  -4.88335772215066E-08   0.00000000000000E+00   7.29490815956557E-16