DF-ISE text

Info {
  version   = 1.0
  type      = xyplot
  datasets  = [
    "time"
    "v(vbus)" "v(bus_series)" "v(collector)" "v(gate_driver)" "v(gate)"
    "i(DUT,collector)" "i(DUT,gate)" "i(Lsigma,vbus)" "i(Rbus,bus_series)" "i(Vbus,vbus)"
    "i(Vgate,gate_driver)" "i(Rge,gate)" ]
  functions = [
    Time
    Voltage Voltage Voltage Voltage Voltage
    Current Current Current Current Current
    Current Current ]
}

Data {
      0.00000000000000E+00
      2.50000000000000E+02   2.50000000000000E+02   2.49999999992629E+02   0.00000000000000E+00  -3.77114457306953E-16
     -7.37069409166342E-07   0.00000000000000E+00  -7.37069404994540E-07  -7.37072696210817E-07   7.37069404994540E-07
      1.71415662412252E-17   3.77114457306953E-19
      2.37500000000000E-08
      2.50000000000000E+02   2.49999999999893E+02   2.49999999992522E+02   0.00000000000000E+00  -1.45066281014731E-11
     -7.37074095579708E-07  -7.38212494582529E-13  -7.37074024046704E-07  -7.37076334189624E-07   7.37074024046704E-07
      6.59392186430598E-13   1.45066281014732E-14
      4.75000000000000E-08
      2.50000000000000E+02   2.50000000000011E+02   2.49999999992640E+02   0.00000000000000E+00  -9.70504202208625E-12
     -7.37069740151274E-07  -6.41336339445401E-13  -7.37069632522669E-07  -7.37065420253202E-07   7.37069632522669E-07
      4.41138273731193E-13   9.70504202208625E-15
      7.12500000000000E-08
      2.50000000000000E+02   2.50000000000001E+02   2.49999999992630E+02   0.00000000000000E+00  -7.50625075837557E-12
     -7.37069238294470E-07  -3.50744580380534E-13  -7.37069205855265E-07  -7.37072696210817E-07   7.37069205855265E-07
      3.41193216289798E-13   7.50625075837557E-15
      9.50000000000000E-08
      2.50000000000000E+02   2.50000000000000E+02   2.49999999992629E+02   0.00000000000000E+00  -5.30020757757352E-12
     -7.37069378561994E-07  -2.78893773761605E-13  -7.37069409826371E-07  -7.37072696210817E-07   7.37069409826371E-07
      2.40918526253342E-13   5.30020757757352E-15
      1.18750000000000E-07
      2.50000000000000E+02   2.50000000000000E+02   2.49999999992629E+02   0.00000000000000E+00  -3.27499720654570E-12
     -7.37069374917074E-07  -2.00360344577110E-13  -7.37069404867763E-07  -7.37065420253202E-07   7.37069404867763E-07
      1.48863509388441E-13   3.27499720654570E-15
      1.42500000000000E-07
      2.50000000000000E+02   2.50000000000000E+02   2.49999999992629E+02   0.00000000000000E+00  -1.48691749827960E-12
     -7.37069385847215E-07  -1.12330726380132E-13  -7.37069339539381E-07  -7.37069058232009E-07   7.37069339539381E-07
      6.75871590127090E-14   1.48691749827960E-15
      1.66250000000000E-07
      2.50000000000000E+02   2.50000000000000E+02   2.49999999992629E+02   0.00000000000000E+00   3.43996364201693E-14
     -7.37069392219684E-07  -1.66599582410335E-14  -7.37069392070903E-07  -7.37069058232009E-07   7.37069392070903E-07
     -1.56361983728042E-15  -3.43996364201693E-17
      1.90000000000000E-07
      2.50000000000000E+02   2.50000000000000E+02   2.49999999992629E+02   0.00000000000000E+00   1.38896748104442E-12
     -7.37069391316734E-07   4.43445164585550E-14  -7.37069422281231E-07  -7.37065420253202E-07   7.37069422281231E-07
     -6.31348855020193E-14  -1.38896748104442E-15
      2.13750000000000E-07
      2.50000000000000E+02   2.50000000000000E+02   2.49999999992629E+02   0.00000000000000E+00   2.62182280028025E-12
     -7.37069384937733E-07   8.57038331627911E-14  -7.37069357011521E-07  -7.37069058232009E-07   7.37069357011521E-07
     -1.19173763649102E-13  -2.62182280028025E-15
      2.37500000000000E-07
      2.50000000000000E+02   2.50000000000000E+02   2.49999999992629E+02   0.00000000000000E+00   3.65453040386866E-12
     -7.37069398605358E-07   1.55369837241118E-13  -7.37069350972301E-07  -7.37072696210817E-07   7.37069350972301E-07
     -1.66115018357666E-13  -3.65453040386866E-15
      2.61250000000000E-07
      2.50000000000000E+02   2.50000000000000E+02   2.49999999992629E+02   0.00000000000000E+00   4.61546422585170E-12
     -7.37069381293531E-07   1.77425084435718E-13  -7.37069404755567E-07  -7.37065420253202E-07   7.37069404755567E-07
     -2.09793828447804E-13  -4.61546422585170E-15
      2.85000000000000E-07
      2.50000000000000E+02   2.50000000000000E+02   2.49999999992629E+02   0.00000000000000E+00   5.45643416096386E-12
     -7.37069404982201E-07   2.17509839696909E-13  -7.37069417064286E-07  -7.37069058232009E-07   7.37069417064286E-07
     -2.48019734589266E-13  -5.45643416096386E-15
      3.08750000000000E-07
      2.50000000000000E+02   2.50000000000000E+02   2.49999999992629E+02   0.00000000000000E+00   6.15212245601684E-12
     -7.37069404986028E-07   2.66646155227602E-13  -7.37069404715565E-07  -7.37072696210817E-07   7.37069404715565E-07
     -2.79641929818948E-13  -6.15212245601684E-15
      3.32500000000000E-07
      2.50000000000000E+02   2.50000000000000E+02   2.49999999992629E+02   0.00000000000000E+00   6.76442207787926E-12
     -7.37069382202837E-07   2.92464201896167E-13  -7.37069402104397E-07  -7.37072696210817E-07   7.37069402104397E-07
     -3.07473730812694E-13  -6.76442207787926E-15
      3.56250000000000E-07
      2.50000000000000E+02   2.50000000000000E+02   2.49999999992629E+02   0.00000000000000E+00   7.31065767903424E-12
     -7.37069398605291E-07   3.12193680188960E-13  -7.37069418062657E-07  -7.37065420253202E-07   7.37069418062657E-07
     -3.32302621774284E-13  -7.31065767903424E-15
      3.80000000000000E-07
      2.50000000000000E+02   2.50000000000000E+02   2.49999999992629E+02   0.00000000000000E+00   7.77319753724302E-12
     -7.37069415001937E-07   3.38502550303798E-13  -7.37069357253651E-07  -7.37069058232009E-07   7.37069357253651E-07
     -3.53327160783774E-13  -7.77319753724302E-15
      4.03750000000000E-07
      2.50000000000000E+02   2.50000000000000E+02   2.49999999992629E+02   0.00000000000000E+00   8.18263154277104E-12
     -7.37069396789492E-07   3.52659075002281E-13  -7.37069351474976E-07  -7.37072696210817E-07   7.37069351474976E-07
     -3.71937797398684E-13  -8.18263154277104E-15
      4.27500000000000E-07
      2.50000000000000E+02   2.50000000000000E+02   2.49999999992629E+02   0.00000000000000E+00   8.53290588033501E-12
     -7.37069375828539E-07   3.69173992734954E-13  -7.37069432602253E-07  -7.37065420253202E-07   7.37069432602253E-07
     -3.87859358197046E-13  -8.53290588033501E-15
      4.51250000000000E-07
      2.50000000000000E+02   2.50000000000000E+02   2.49999999992629E+02   0.00000000000000E+00   8.81812621933611E-12
     -7.37069401326863E-07   3.90414800646321E-13  -7.37069397859956E-07  -7.37069058232009E-07   7.37069397859956E-07
     -4.00823919060732E-13  -8.81812621933611E-15
      4.75000000000000E-07
      2.50000000000000E+02   2.50000000000000E+02   2.49999999992629E+02   0.00000000000000E+00   9.08282767171179E-12
     -7.37069394038812E-07   3.92344560211823E-13  -7.37069391021230E-07  -7.37069058232009E-07   7.37069391021230E-07
     -4.12855803259627E-13  -9.08282767171179E-15
      4.98750000000000E-07
      2.50000000000000E+02   2.50000000000000E+02   2.49999999992629E+02   0.00000000000000E+00   9.30094164009495E-12
     -7.37069423195503E-07   4.04843581546107E-13  -7.37069378629896E-07  -7.37069058232009E-07   7.37069378629896E-07
     -4.22770074549771E-13  -9.30094164009495E-15
      5.22500000000000E-07
      2.50000000000000E+02   2.50000000000000E+02   2.49999999992629E+02   0.00000000000000E+00   9.43075624316885E-12
     -7.37069374004638E-07   4.32864929360565E-13  -7.37069412556994E-07  -7.37061782274395E-07   7.37069412556994E-07
     -4.28670738325857E-13  -9.43075624316885E-15
      5.46250000000000E-07
      2.50000000000000E+02   2.50000000000000E+02   2.49999999992629E+02   0.00000000000000E+00   9.61587359234287E-12
     -7.37069404059072E-07   4.08392086710135E-13  -7.37069366664321E-07  -7.37069058232009E-07   7.37069366664321E-07
     -4.37085163288312E-13  -9.61587359234287E-15
      5.70000000000000E-07
      2.50000000000000E+02   2.50000000000000E+02   2.49999999992629E+02   0.00000000000000E+00   9.74079296017256E-12
     -7.37069410441499E-07   4.25262162917333E-13  -7.37069381105610E-07  -7.37065420253202E-07   7.37069381105610E-07
     -4.42763316371480E-13  -9.74079296017256E-15
      5.93750000000000E-07
      2.50000000000000E+02   2.50000000000000E+02   2.49999999992629E+02   0.00000000000000E+00   9.88879786584459E-12
     -7.37069396781533E-07   4.12335567585881E-13  -7.37069411822806E-07  -7.37069058232009E-07   7.37069411822806E-07
     -4.49490812083845E-13  -9.88879786584459E-15
      6.17500000000000E-07
      2.50000000000000E+02   2.50000000000000E+02   2.49999999992629E+02   0.00000000000000E+00   1.00224728168283E-11
     -7.37069407706924E-07   4.14658152782499E-13  -7.37069397261799E-07  -7.37072696210817E-07   7.37069397261799E-07
     -4.55566946219469E-13  -1.00224728168283E-14
      6.41250000000000E-07
      2.50000000000000E+02   2.50000000000000E+02   2.49999999992629E+02   0.00000000000000E+00   1.00647658068338E-11
     -7.37069395865605E-07   4.43663431382205E-13  -7.37069394764761E-07  -7.37072696210817E-07   7.37069394764761E-07
     -4.57489354856081E-13  -1.00647658068338E-14
      6.65000000000000E-07
      2.50000000000000E+02   2.50000000000000E+02   2.49999999992629E+02   0.00000000000000E+00   1.01388257531666E-11
     -7.37069389486647E-07   4.28007988998798E-13  -7.37069406831354E-07  -7.37065420253202E-07   7.37069406831354E-07
     -4.60855716053027E-13  -1.01388257531666E-14
      6.88750000000000E-07
      2.50000000000000E+02   2.50000000000000E+02   2.49999999992629E+02   0.00000000000000E+00   1.01187013147091E-11
     -7.37069433215932E-07   4.59248789739700E-13  -7.37069398752366E-07  -7.37069058232009E-07   7.37069398752366E-07
     -4.59940968850413E-13  -1.01187013147091E-14
      7.12500000000000E-07
      2.50000000000000E+02   2.50000000000000E+02   2.49999999992629E+02   0.00000000000000E+00   1.01017364989854E-11
     -7.37069386758822E-07   4.54353239721870E-13  -7.37069348959981E-07  -7.37069058232009E-07   7.37069348959981E-07
     -4.59169840862972E-13  -1.01017364989854E-14
      7.36250000000000E-07
      2.50000000000000E+02   2.50000000000000E+02   2.49999999992629E+02   0.00000000000000E+00   1.01363461327406E-11
     -7.37069389491545E-07   4.29885785333135E-13  -7.37069395084707E-07  -7.37065420253202E-07   7.37069395084707E-07
     -4.60743006033663E-13  -1.01363461327406E-14
      7.60000000000000E-07
      2.50000000000000E+02   2.50000000000000E+02   2.49999999992629E+02   0.00000000000000E+00   1.01008888693235E-11
     -7.37069400418148E-07   4.53265799623592E-13  -7.37069408588575E-07  -7.37069058232009E-07   7.37069408588575E-07
     -4.59131312241978E-13  -1.01008888693235E-14
      7.83750000000000E-07
      2.50000000000000E+02   2.50000000000000E+02   2.49999999992629E+02   0.00000000000000E+00   1.01282066627335E-11
     -7.37069422288162E-07   4.25981134959396E-13  -7.37069444656341E-07  -7.37065420253202E-07   7.37069444656341E-07
     -4.60373030124251E-13  -1.01282066627335E-14
      8.07500000000000E-07
      2.50000000000000E+02   2.50000000000000E+02   2.49999999992629E+02   0.00000000000000E+00   1.01184574156944E-11
     -7.37069392221663E-07   4.37294573779363E-13  -7.37069362362349E-07  -7.37072696210817E-07   7.37069362362349E-07
     -4.59929882531563E-13  -1.01184574156944E-14
      8.31250000000000E-07
      2.50000000000000E+02   2.50000000000000E+02   2.49999999992629E+02   0.00000000000000E+00   1.01120954771110E-11
     -7.37069404979634E-07   4.30202020588138E-13  -7.37069408691275E-07  -7.37065420253202E-07   7.37069408691275E-07
     -4.59640703505043E-13  -1.01120954771110E-14
      8.55000000000000E-07
      2.50000000000000E+02   2.50000000000000E+02   2.49999999992629E+02   0.00000000000000E+00   1.01093751025235E-11
     -7.37069420470523E-07   4.27683754593928E-13  -7.37069350598800E-07  -7.37072696210817E-07   7.37069350598800E-07
     -4.59517050114705E-13  -1.01093751025235E-14
      8.78750000000000E-07
      2.50000000000000E+02   2.50000000000000E+02   2.49999999992629E+02   0.00000000000000E+00   1.00573185895025E-11
     -7.37069399518045E-07   4.40756694809774E-13  -7.37069410141733E-07  -7.37069058232009E-07   7.37069410141733E-07
     -4.57150844977388E-13  -1.00573185895025E-14
      9.02500000000000E-07
      2.50000000000000E+02   2.50000000000000E+02   2.49999999992629E+02   0.00000000000000E+00   9.94519225702132E-12
     -7.37069412276324E-07   4.60974366830658E-13  -7.37069399436764E-07  -7.37072696210817E-07   7.37069399436764E-07
     -4.52054193500969E-13  -9.94519225702132E-15
      9.26250000000000E-07
      2.50000000000000E+02   2.50000000000000E+02   2.49999999992629E+02   0.00000000000000E+00   9.89945171377653E-12
     -7.37069386767599E-07   4.33002603065111E-13  -7.37069381916419E-07  -7.37069058232009E-07   7.37069381916419E-07
     -4.49975077898933E-13  -9.89945171377653E-15
      9.50000000000000E-07
      2.50000000000000E+02   2.50000000000000E+02   2.49999999992629E+02   0.00000000000000E+00   9.86189827297928E-12
     -7.37069415917662E-07   4.26172965846693E-13  -7.37069385648324E-07  -7.37072696210817E-07   7.37069385648324E-07
     -4.48268103317240E-13  -9.86189827297928E-15
      9.50000000000000E-07
      2.50000000000000E+02   2.50000000000000E+02   2.49999999992629E+02   0.00000000000000E+00   9.86189827297928E-12
     -7.37069415970544E-07   4.26172965846693E-13  -7.37069385648324E-07  -7.37072696210817E-07   7.37069385648324E-07
     -4.48268103317240E-13  -9.86189827297928E-15
      9.51666666666667E-07
      2.50000000000000E+02   2.49999999996648E+02   2.49999999989275E+02   0.00000000000000E+00  -5.01570860587019E-11
     -7.37277970647098E-07  -4.02565290478646E-12  -7.37277968381815E-07  -7.37276423024014E-07   7.37277968381815E-07
      2.27986754812282E-12   5.01570860587019E-14
      9.53333333333333E-07
      2.50000000000000E+02   2.49999999998433E+02   2.49999999991059E+02   0.00000000000000E+00  -1.87372273740711E-11
     -7.37387849488124E-07  -2.19142917015187E-12  -7.37385388810753E-07  -7.37389200367033E-07   7.37385388810753E-07
      8.51692153366866E-13   1.87372273740711E-14
      9.55000000000000E-07
      2.50000000000000E+02   2.50000000000237E+02   2.49999999992863E+02   0.00000000000000E+00   1.28286236910195E-11
     -7.37360394532000E-07  -6.64207548902733E-11  -7.37372824604358E-07  -7.37374648451805E-07   7.37372824604358E-07
     -5.83119258682704E-13  -1.28286236910195E-14
      9.56666666666667E-07
      2.50000000000000E+02   2.50000000001527E+02   2.49999999994154E+02   0.00000000000000E+00   3.51638291839385E-11
     -7.37287763927003E-07   1.39718524174383E-12  -7.37288018830257E-07  -7.37287336960435E-07   7.37288018830257E-07
     -1.59835587199721E-12  -3.51638291839385E-14
      9.58333333333333E-07
      2.50000000000000E+02   2.50000000002122E+02   2.49999999994750E+02   0.00000000000000E+00   4.53545271869283E-11
     -7.37170657168532E-07   1.85415793565725E-12  -7.37170153589205E-07  -7.37167283659801E-07   7.37170153589205E-07
     -2.06156941758765E-12  -4.53545271869284E-14
      9.60000000000000E-07
      2.50000000000000E+02   2.50000000002042E+02   2.49999999994672E+02   0.00000000000000E+00   4.38153212529135E-11
     -7.37057441301815E-07   1.77075135221438E-12  -7.37056692544256E-07  -7.37054506316781E-07   7.37056692544256E-07
     -1.99160551149607E-12  -4.38153212529135E-14
      9.61666666666667E-07
      2.50000000000000E+02   2.50000000001476E+02   2.49999999994107E+02   0.00000000000000E+00   3.39377184588674E-11
     -7.36974653327042E-07   9.07965391668550E-13  -7.36974670510050E-07  -7.36978108761832E-07   7.36974670510050E-07
     -1.54262356631215E-12  -3.39377184588674E-14
      9.63333333333334E-07
      2.50000000000000E+02   2.50000000000683E+02   2.49999999993313E+02   0.00000000000000E+00   2.01162804288335E-11
     -7.36936042700729E-07   5.91758553474744E-13  -7.36936743961380E-07  -7.36938090994954E-07   7.36936743961380E-07
     -9.14376383128797E-13  -2.01162804288335E-14
      9.65000000000000E-07
      2.50000000000000E+02   2.49999999999919E+02   2.49999999992549E+02   0.00000000000000E+00   6.92720690440573E-12
     -7.36940472766070E-07  -2.21836495626074E-13  -7.36941252441343E-07  -7.36945366952568E-07   7.36941252441343E-07
     -3.14873041109351E-13  -6.92720690440573E-15
      9.66666666666667E-07
      2.50000000000000E+02   2.49999999999368E+02   2.49999999991999E+02   0.00000000000000E+00  -2.55106053753087E-12
     -7.36976409184309E-07  -3.16491360210244E-13  -7.36976338420285E-07  -7.36978108761832E-07   7.36976338420285E-07
      1.15957297160494E-13   2.55106053753087E-15
      9.68333333333334E-07
      2.50000000000000E+02   2.49999999999110E+02   2.49999999991739E+02   0.00000000000000E+00  -6.83604380395786E-12
     -7.37025380967286E-07  -9.96954541367100E-13  -7.37025801305532E-07  -7.37025402486324E-07   7.37025801305532E-07
      3.10729263816266E-13   6.83604380395786E-15
      9.70000000000000E-07
      2.50000000000000E+02   2.49999999999137E+02   2.49999999991767E+02   0.00000000000000E+00  -6.14623627876451E-12
     -7.37073361812876E-07  -9.09569692060381E-13  -7.37073720794247E-07  -7.37072696210817E-07   7.37073720794247E-07
      2.79374376307478E-13   6.14623627876451E-15
      9.71666666666667E-07
      2.50000000000000E+02   2.49999999999373E+02   2.49999999992002E+02   0.00000000000000E+00  -1.89257068534699E-12
     -7.37109189011192E-07  -5.42509443944036E-13  -7.37108543497936E-07  -7.37109075998887E-07   7.37108543497936E-07
      8.60259402430449E-14   1.89257068534699E-15
      9.73333333333334E-07
      2.50000000000000E+02   2.49999999999701E+02   2.49999999992330E+02   0.00000000000000E+00   3.90035872879259E-12
     -7.37124053247859E-07  -1.23903512107900E-13  -7.37125156502695E-07  -7.37127265892923E-07   7.37125156502695E-07
     -1.77289033126936E-13  -3.90035872879259E-15
      9.75000000000001E-07
      2.50000000000000E+02   2.50000000000027E+02   2.49999999992656E+02   0.00000000000000E+00   9.68915774049777E-12
     -7.37124446744466E-07  -1.88623750740223E-13  -7.37123661874231E-07  -7.37127265892923E-07   7.37123661874231E-07
     -4.40416260931717E-13  -9.68915774049777E-15
      9.76666666666667E-07
      2.50000000000000E+02   2.50000000000260E+02   2.49999999992889E+02   0.00000000000000E+00   1.37944793606587E-11
     -7.37108919473510E-07   2.44203735192057E-13  -7.37109209547032E-07  -7.37112713977695E-07   7.37109209547032E-07
     -6.27021789120851E-13  -1.37944793606587E-14
      9.78333333333334E-07
      2.50000000000000E+02   2.50000000000373E+02   2.49999999993002E+02   0.00000000000000E+00   1.58292422623422E-11
     -7.37088634184149E-07   1.64753129671637E-13  -7.37088465651213E-07  -7.37090886104852E-07   7.37088465651213E-07
     -7.19511011924645E-13  -1.58292422623422E-14
      9.80000000000001E-07
      2.50000000000000E+02   2.50000000000362E+02   2.49999999992991E+02   0.00000000000000E+00   1.56659807683378E-11
     -7.37067591095962E-07   2.87166051259055E-13  -7.37068371930586E-07  -7.37069058232009E-07   7.37068371930586E-07
     -7.12090034924444E-13  -1.56659807683378E-14
      9.81666666666668E-07
      2.50000000000000E+02   2.50000000000268E+02   2.49999999992898E+02   0.00000000000000E+00   1.40532849031777E-11
     -7.37053878115299E-07   4.07342920617375E-13  -7.37053462985383E-07  -7.37050868337974E-07   7.37053462985383E-07
     -6.38785677417169E-13  -1.40532849031777E-14
      9.83333333333334E-07
      2.50000000000000E+02   2.50000000000134E+02   2.49999999992764E+02   0.00000000000000E+00   1.18109139400822E-11
     -7.37046671857331E-07  -7.61536241960601E-14  -7.37046014936573E-07  -7.37047230359167E-07   7.37046014936573E-07
     -5.36859724549191E-13  -1.18109139400822E-14
      9.85000000000001E-07
      2.50000000000000E+02   2.49999999999996E+02   2.49999999992626E+02   0.00000000000000E+00   9.46871989779030E-12
     -7.37046205519882E-07   1.13387471996640E-13  -7.37046215272352E-07  -7.37047230359167E-07   7.37046215272352E-07
     -4.30396358990468E-13  -9.46871989779030E-15
      9.86666666666668E-07
      2.50000000000000E+02   2.49999999999896E+02   2.49999999992525E+02   0.00000000000000E+00   7.80314605361507E-12
     -7.37052697692375E-07  -6.74399851925769E-14  -7.37051994116009E-07  -7.37054506316781E-07   7.37051994116009E-07
     -3.54688456982503E-13  -7.80314605361507E-15
      9.88333333333334E-07
      2.50000000000000E+02   2.49999999999842E+02   2.49999999992472E+02   0.00000000000000E+00   6.93472443226056E-12
     -7.37060122514524E-07   1.59576303132166E-14  -7.37060757222786E-07  -7.37061782274395E-07   7.37060757222786E-07
     -3.15214746920935E-13  -6.93472443226056E-15
      9.90000000000001E-07
      2.50000000000000E+02   2.49999999999840E+02   2.49999999992469E+02   0.00000000000000E+00   6.99480575784121E-12
     -7.37068946325173E-07  -1.53433865613240E-13  -7.37069637464453E-07  -7.37076334189624E-07   7.37069637464453E-07
     -3.17945716265509E-13  -6.99480575784121E-15
      9.91666666666668E-07
      2.50000000000000E+02   2.49999999999878E+02   2.49999999992508E+02   0.00000000000000E+00   7.77809802416755E-12
     -7.37075569644184E-07  -2.53424548365944E-13  -7.37076398981241E-07  -7.37076334189624E-07   7.37076398981241E-07
     -3.53549910189434E-13  -7.77809802416755E-15
      9.93333333333335E-07
      2.50000000000000E+02   2.49999999999943E+02   2.49999999992572E+02   0.00000000000000E+00   8.93165750302265E-12
     -7.37080451537470E-07   2.33256141185039E-13  -7.37079568735897E-07  -7.37072696210817E-07   7.37079568735897E-07
     -4.05984431955575E-13  -8.93165750302265E-15
      9.95000000000001E-07
      2.50000000000000E+02   2.50000000000005E+02   2.49999999992634E+02   0.00000000000000E+00   1.00569581307709E-11
     -7.37079941506223E-07   1.46922439423227E-13  -7.37079302819753E-07  -7.37079972168431E-07   7.37079302819753E-07
     -4.57134460489588E-13  -1.00569581307709E-14
      9.96666666666668E-07
      2.50000000000000E+02   2.50000000000045E+02   2.49999999992674E+02   0.00000000000000E+00   1.08060646627411E-11
     -7.37075744530742E-07   1.52229168723385E-13  -7.37076811659269E-07  -7.37076334189624E-07   7.37076811659269E-07
     -4.91184757397323E-13  -1.08060646627411E-14
      9.98333333333335E-07
      2.50000000000000E+02   2.50000000000067E+02   2.49999999992696E+02   0.00000000000000E+00   1.12617170358551E-11
     -7.37073223445130E-07   1.38388168738802E-14  -7.37073108685207E-07  -7.37072696210817E-07   7.37073108685207E-07
     -5.11896228902504E-13  -1.12617170358551E-14
      1.00000000000000E-06
      2.50000000000000E+02   2.50000000000070E+02   2.49999999992699E+02   0.00000000000000E+00   1.13603226481006E-11
     -7.37069769698390E-07   1.58715605504276E-13  -7.37069244841144E-07  -7.37076334189624E-07   7.37069244841144E-07
     -5.16378302186392E-13  -1.13603226481006E-14
      1.00166666666667E-06
      2.50000000000000E+02   2.50001749433808E+02   2.50001750398345E+02   5.00000000000462E-01   4.25053846003646E-03
      9.64536979157327E-05  -2.25298158954336E-02   9.64536978646492E-05   9.64537030085921E-05  -9.64536978646492E-05
      2.25340664336557E-02  -4.25053846003646E-06
      1.00333333333333E-06
      2.50000000000000E+02   2.50004363968532E+02   2.50004367357496E+02   1.00000000000048E+00   1.27003361153980E-02
      3.38896393481394E-04  -4.48645571139639E-02   3.38896394087465E-04   3.38896392349852E-04  -3.38896394087465E-04
      4.48772574493218E-02  -1.27003361153980E-05
      1.00500000000000E-06
      2.50000000000000E+02   2.50006970159277E+02   2.50006977420551E+02   1.50000000000050E+00   2.53073950719748E-02
      7.26127465251530E-04  -6.70061746480915E-02   7.26127465017961E-04   7.26127469533822E-04  -7.26127465017961E-04
      6.70314820422055E-02  -2.53073950719748E-05
      1.00666666666667E-06
      2.50000000000000E+02   2.50008916686707E+02   2.50008928901696E+02   2.00000000000051E+00   4.20381369608697E-02
      1.22149894857762E-03  -8.89562283644751E-02   1.22149894872184E-03   1.22149895105395E-03  -1.22149894872184E-03
      8.89982665018020E-02  -4.20381369608697E-05
      1.00833333333334E-06
      2.50000000000000E+02   2.50009879857176E+02   2.50009897560975E+02   2.50000000000053E+00   6.28688480423213E-02
      1.77037990175082E-03  -1.10715819877739E-01   1.77037990295298E-03   1.77037990943063E-03  -1.77037990295298E-03
      1.10778688725373E-01  -6.28688480423213E-05
      1.01000000000000E-06
      2.50000000000000E+02   2.50009861699494E+02   2.50009884882015E+02   3.00000000000055E+00   8.77852572032675E-02
      2.31825209775506E-03  -1.32285612143046E-01   2.31825209709227E-03   2.31825209993985E-03  -2.31825209709227E-03
      1.32373397399876E-01  -8.77852572032676E-05
      1.01166666666667E-06
      2.50000000000000E+02   2.50009107948218E+02   2.50009136190710E+02   3.50000000000056E+00   1.16780704591621E-01
      2.82424921984862E-03  -1.53665914541475E-01   2.82424922032698E-03   2.82424921533675E-03  -2.82424922032698E-03
      1.53782695245861E-01  -1.16780704591621E-04
      1.01333333333334E-06
      2.50000000000000E+02   2.50007986208619E+02   2.50008018887894E+02   4.00000000000058E+00   1.49853599604066E-01
      3.26792747724332E-03  -1.74856800963732E-01   3.26792747695378E-03   3.26792747728177E-03  -3.26792747695378E-03
      1.75006654563478E-01  -1.49853599604066E-04
      1.01500000000000E-06
      2.50000000000000E+02   2.50006864395690E+02   2.50006900888518E+02   4.50000000000060E+00   1.87004876254733E-01
      3.64928279246055E-03  -1.95858228021368E-01   3.64928279307118E-03   3.64928279668675E-03  -3.64928279307118E-03
      1.96045232897539E-01  -1.87004876254733E-04
      1.01666666666667E-06
      2.50000000000000E+02   2.50006019465443E+02   2.50006059302418E+02   5.00000000000061E+00   2.28235995568129E-01
      3.98369753964106E-03  -2.16670127842243E-01   3.98369753989730E-03   3.98369753747829E-03  -3.98369753989730E-03
      2.16898363837840E-01  -2.28235995568129E-04
      1.01833333333334E-06
      2.50000000000000E+02   2.50005591470033E+02   2.50005634413380E+02   5.50000000000063E+00   2.73547792931211E-01
      4.29433476335229E-03  -2.37292461619519E-01   4.29433476392863E-03   4.29433476529084E-03  -4.29433476392863E-03
      2.37566009412246E-01  -2.73547792931211E-04
      1.02000000000000E-06
      2.50000000000000E+02   2.50005582996127E+02   2.50005629041140E+02   6.00000000000065E+00   3.22940199408036E-01
      4.60450121496782E-03  -2.57725232554831E-01   4.60450121545654E-03   4.60450122045586E-03  -4.60450121545654E-03
      2.58048172754210E-01  -3.22940199408036E-04
      1.02166666666667E-06
      2.50000000000000E+02   2.50005892791506E+02   2.50005942110291E+02   6.50000000000066E+00   3.76412644020695E-01
      4.93187852101918E-03  -2.77968467172521E-01   4.93187852136045E-03   4.93187851316179E-03  -4.93187852136045E-03
      2.78344879817271E-01  -3.76412644020695E-04
      1.02333333333334E-06
      2.50000000000000E+02   2.50006366705997E+02   2.50006419561842E+02   7.00000000000068E+00   4.33964814988039E-01
      5.28558441040770E-03  -2.98022179958183E-01   5.28558441010782E-03   5.28558441146743E-03  -5.28558441010782E-03
      2.98456144773302E-01  -4.33964814988039E-04
      1.02500000000000E-06
      2.50000000000000E+02   2.50006849000147E+02   2.50006905660991E+02   7.50000000000070E+00   4.95597447533164E-01
      5.66608441777304E-03  -3.17886336756160E-01   5.66608441826156E-03   5.66608441295102E-03  -5.66608441826156E-03
      3.18381934203070E-01  -4.95597447533164E-04
      1.02666666666667E-06
      2.50000000000000E+02   2.50007221229848E+02   2.50007281902486E+02   8.00000000000072E+00   5.61312908141162E-01
      6.06726385503084E-03  -3.37560827630211E-01   6.06726385425411E-03   6.06726385376533E-03  -6.06726385425411E-03
      3.38122140539071E-01  -5.61312908141162E-04
      1.02833333333334E-06
      2.50000000000000E+02   2.50007422210205E+02   2.50007487006294E+02   8.50000000000073E+00   6.31115501346375E-01
      6.47960886628799E-03  -3.57045452619304E-01   6.47960886563803E-03   6.47960886635701E-03  -6.47960886563803E-03
      3.57676568120653E-01  -6.31115501346374E-04
      1.03000000000000E-06
      2.50000000000000E+02   2.50007448873705E+02   2.50007517808056E+02   9.00000000000075E+00   7.05011535455453E-01
      6.89343518275245E-03  -3.76339918671749E-01   6.89343518255721E-03   6.89343518024543E-03  -6.89343518255721E-03
      3.77044930206604E-01  -7.05011535455453E-04
      1.03166666666667E-06
      2.50000000000000E+02   2.50007342588697E+02   2.50007415602265E+02   9.50000000000077E+00   7.83009206423097E-01
      7.30135677738975E-03  -3.95443845047229E-01   7.30135677684801E-03   7.30135677440558E-03  -7.30135677684801E-03
      3.96226854253530E-01  -7.83009206423097E-04
      1.03333333333334E-06
      2.50000000000000E+02   2.50007167926495E+02   2.50007244922244E+02   1.00000000000008E+01   8.65118340423900E-01
      7.69957491473381E-03  -4.14356775277091E-01   7.69957491546011E-03   7.69957491502282E-03  -7.69957491546011E-03
      4.15221893617131E-01  -8.65118340423900E-04
      1.03500000000000E-06
      2.50000000000000E+02   2.50006990949873E+02   2.50007071829483E+02   1.05000000000008E+01   9.51349991932425E-01
      8.08796101870966E-03  -4.33078195828500E-01   8.08796101953002E-03   8.08796102501219E-03  -8.08796101953002E-03
      4.34029545821290E-01  -9.51349991932425E-04
      1.03666666666667E-06
      2.50000000000000E+02   2.50006862433264E+02   2.50006947125337E+02   1.10000000000008E+01   1.04171586749642E+00
      8.46920731135676E-03  -4.51607562881722E-01   8.46920731197011E-03   8.46920730691636E-03  -8.46920731197011E-03