DF-ISE text

Info {
  version   = 1.0
  type      = xyplot
  datasets  = [
    "time"
    "v(vbus)" "v(bus_series)" "v(collector)" "v(gate_driver)" "v(gate)"
    "i(DUT,collector)" "i(DUT,gate)" "i(Lsigma,vbus)" "i(Rbus,bus_series)" "i(Vbus,vbus)"
    "i(Vgate,gate_driver)" "i(Rge,gate)" ]
  functions = [
    Time
    Voltage Voltage Voltage Voltage Voltage
    Current Current Current Current Current
    Current Current ]
}

Data {
      0.00000000000000E+00
      2.50000000000000E+02   2.50000000000000E+02   2.49999999983221E+02   0.00000000000000E+00   8.95135307219328E-19
     -1.67793744867730E-06   0.00000000000000E+00  -1.67793745221247E-06  -1.67793041327968E-06   1.67793745221247E-06
     -4.06879685099361E-20  -8.95135307219328E-22
      2.37500000000000E-08
      2.50000000000000E+02   2.50000000000031E+02   2.49999999983251E+02   0.00000000000000E+00  -3.98522113866243E-12
     -1.67793581768386E-06   2.32309126691880E-14  -1.67793576622338E-06  -1.67793768923730E-06   1.67793576622338E-06
      1.81146415393747E-13   3.98522113866243E-15
      4.75000000000000E-08
      2.50000000000000E+02   2.49999999999998E+02   2.49999999983218E+02   0.00000000000000E+00  -2.23062388581156E-12
     -1.67793742113091E-06   5.21011892249699E-13  -1.67793730304011E-06  -1.67793405125849E-06   1.67793730304011E-06
      1.01391994809616E-13   2.23062388581156E-15
      7.12500000000000E-08
      2.50000000000000E+02   2.50000000000000E+02   2.49999999983220E+02   0.00000000000000E+00  -2.70204711621899E-14
     -1.67793743527176E-06   9.08863586917479E-14  -1.67793742105759E-06  -1.67794496519491E-06   1.67793742105759E-06
      1.22820323464500E-15   2.70204711621899E-17
      9.50000000000000E-08
      2.50000000000000E+02   2.50000000000000E+02   2.49999999983221E+02   0.00000000000000E+00   1.93417342295733E-12
     -1.67793741113510E-06   1.83831373787465E-13  -1.67793743048057E-06  -1.67793768923730E-06   1.67793743048057E-06
     -8.79169737707876E-14  -1.93417342295733E-15
      1.18750000000000E-07
      2.50000000000000E+02   2.50000000000000E+02   2.49999999983221E+02   0.00000000000000E+00   3.66162250196438E-12
     -1.67793742595977E-06   2.72135064130081E-13  -1.67793742519076E-06  -1.67793405125849E-06   1.67793742519076E-06
     -1.66437386452926E-13  -3.66162250196438E-15
      1.42500000000000E-07
      2.50000000000000E+02   2.50000000000000E+02   2.49999999983221E+02   0.00000000000000E+00   5.18156679135087E-12
     -1.67793742004535E-06   3.46099954049041E-13  -1.67793741832102E-06  -1.67793768923730E-06   1.67793741832102E-06
     -2.35525763243221E-13  -5.18156679135087E-15
      1.66250000000000E-07
      2.50000000000000E+02   2.50000000000000E+02   2.49999999983221E+02   0.00000000000000E+00   6.51244708180438E-12
     -1.67793742962749E-06   4.12332097356681E-13  -1.67793743682150E-06  -1.67793768923730E-06   1.67793743682150E-06
     -2.96020321900199E-13  -6.51244708180438E-15
      1.90000000000000E-07
      2.50000000000000E+02   2.50000000000000E+02   2.49999999983221E+02   0.00000000000000E+00   7.70712404745964E-12
     -1.67793744947463E-06   4.56044938578266E-13  -1.67793744620671E-06  -1.67793768923730E-06   1.67793744620671E-06
     -3.50323820339074E-13  -7.70712404745964E-15
      2.13750000000000E-07
      2.50000000000000E+02   2.50000000000000E+02   2.49999999983221E+02   0.00000000000000E+00   8.75876365812516E-12
     -1.67793741828529E-06   5.02585758111109E-13  -1.67793743586413E-06  -1.67793768923730E-06   1.67793743586413E-06
     -3.98125620823871E-13  -8.75876365812516E-15
      2.37500000000000E-07
      2.50000000000000E+02   2.50000000000000E+02   2.49999999983221E+02   0.00000000000000E+00   9.67089303825775E-12
     -1.67793743560765E-06   5.47706993202386E-13  -1.67793742578926E-06  -1.67793768923730E-06   1.67793742578926E-06
     -4.39586047193534E-13  -9.67089303825775E-15
      2.61250000000000E-07
      2.50000000000000E+02   2.50000000000000E+02   2.49999999983221E+02   0.00000000000000E+00   1.04800964227099E-11
     -1.67793744132093E-06   5.78517498088042E-13  -1.67793743692491E-06  -1.67793768923730E-06   1.67793743692491E-06
     -4.76368019214088E-13  -1.04800964227099E-14
      2.85000000000000E-07
      2.50000000000000E+02   2.50000000000000E+02   2.49999999983221E+02   0.00000000000000E+00   1.12163030622394E-11
     -1.67793742424523E-06   5.97896197790776E-13  -1.67793743319006E-06  -1.67793768923730E-06   1.67793743319006E-06
     -5.09831957374520E-13  -1.12163030622394E-14
      3.08750000000000E-07
      2.50000000000000E+02   2.50000000000000E+02   2.49999999983221E+02   0.00000000000000E+00   1.18260560490778E-11
     -1.67793745934034E-06   6.38663367827859E-13  -1.67793745690726E-06  -1.67793768923730E-06   1.67793745690726E-06
     -5.37548002230809E-13  -1.18260560490778E-14
      3.32500000000000E-07
      2.50000000000000E+02   2.50000000000000E+02   2.49999999983221E+02   0.00000000000000E+00   1.23195057731697E-11
     -1.67793745756026E-06   6.76208001757147E-13  -1.67793743994036E-06  -1.67793768923730E-06   1.67793743994036E-06
     -5.59977535144078E-13  -1.23195057731697E-14
      3.56250000000000E-07
      2.50000000000000E+02   2.50000000000000E+02   2.49999999983221E+02   0.00000000000000E+00   1.27450929180048E-11
     -1.67793743138292E-06   6.94221985917482E-13  -1.67793745465340E-06  -1.67793768923730E-06   1.67793745465340E-06
     -5.79322405363853E-13  -1.27450929180048E-14
      3.80000000000000E-07
      2.50000000000000E+02   2.50000000000000E+02   2.49999999983221E+02   0.00000000000000E+00   1.31585685750176E-11
     -1.67793743572265E-06   6.90704169254456E-13  -1.67793744541975E-06  -1.67793768923730E-06   1.67793744541975E-06
     -5.98116753409889E-13  -1.31585685750176E-14
      4.03750000000000E-07
      2.50000000000000E+02   2.50000000000000E+02   2.49999999983221E+02   0.00000000000000E+00   1.34596865760734E-11
     -1.67793745008647E-06   7.27195952465261E-13  -1.67793748091545E-06  -1.67793768923730E-06   1.67793748091545E-06
     -6.11803935276064E-13  -1.34596865760734E-14
      4.27500000000000E-07
      2.50000000000000E+02   2.50000000000000E+02   2.49999999983221E+02   0.00000000000000E+00   1.37254101373394E-11
     -1.67793745990369E-06   7.33978017883549E-13  -1.67793742017487E-06  -1.67793405125849E-06   1.67793742017487E-06
     -6.23882278969971E-13  -1.37254101373394E-14
      4.51250000000000E-07
      2.50000000000000E+02   2.50000000000000E+02   2.49999999983221E+02   0.00000000000000E+00   1.39417681818122E-11
     -1.67793744785313E-06   7.45465416577865E-13  -1.67793740688614E-06  -1.67793768923730E-06   1.67793740688614E-06
     -6.33716735536920E-13  -1.39417681818122E-14
      4.75000000000000E-07
      2.50000000000000E+02   2.50000000000000E+02   2.49999999983221E+02   0.00000000000000E+00   1.41475713994799E-11
     -1.67793744036851E-06   7.41633848830532E-13  -1.67793746107323E-06  -1.67793768923730E-06   1.67793746107323E-06
     -6.43071427249084E-13  -1.41475713994799E-14
      4.98750000000000E-07
      2.50000000000000E+02   2.50000000000000E+02   2.49999999983221E+02   0.00000000000000E+00   1.42979299291265E-11
     -1.67793744492787E-06   7.58083472650459E-13  -1.67793748473150E-06  -1.67793768923730E-06   1.67793748473150E-06
     -6.49905905869387E-13  -1.42979299291265E-14
      5.22500000000000E-07
      2.50000000000000E+02   2.50000000000000E+02   2.49999999983221E+02   0.00000000000000E+00   1.44058991702973E-11
     -1.67793745977350E-06   7.68105371026048E-13  -1.67793747168358E-06  -1.67793768923730E-06   1.67793747168358E-06
     -6.54813598649879E-13  -1.44058991702973E-14
      5.46250000000000E-07
      2.50000000000000E+02   2.50000000000000E+02   2.49999999983221E+02   0.00000000000000E+00   1.45074274762065E-11
     -1.67793743973773E-06   7.63784595460221E-13  -1.67793742999025E-06  -1.67793768923730E-06   1.67793742999025E-06
     -6.59428521645751E-13  -1.45074274762065E-14
      5.70000000000000E-07
      2.50000000000000E+02   2.50000000000000E+02   2.49999999983221E+02   0.00000000000000E+00   1.45693037628598E-11
     -1.67793745548191E-06   7.73184847065323E-13  -1.67793743474445E-06  -1.67793768923730E-06   1.67793743474445E-06
     -6.62241080129992E-13  -1.45693037628598E-14
      5.93750000000000E-07
      2.50000000000000E+02   2.50000000000000E+02   2.49999999983221E+02   0.00000000000000E+00   1.46458476667441E-11
     -1.67793745435840E-06   7.61043432952343E-13  -1.67793742644590E-06  -1.67793768923730E-06   1.67793742644590E-06
     -6.65720348488369E-13  -1.46458476667441E-14
      6.17500000000000E-07
      2.50000000000000E+02   2.50000000000000E+02   2.49999999983221E+02   0.00000000000000E+00   1.47095488387158E-11
     -1.67793745370257E-06   7.59541379047816E-13  -1.67793744328979E-06  -1.67793768923730E-06   1.67793744328979E-06
     -6.68615856305261E-13  -1.47095488387158E-14
      6.41250000000000E-07
      2.50000000000000E+02   2.50000000000000E+02   2.49999999983221E+02   0.00000000000000E+00   1.47227246901214E-11
     -1.67793744098254E-06   7.75357756632457E-13  -1.67793742567741E-06  -1.67793768923730E-06   1.67793742567741E-06
     -6.69214758641883E-13  -1.47227246901214E-14
      6.65000000000000E-07
      2.50000000000000E+02   2.50000000000000E+02   2.49999999983221E+02   0.00000000000000E+00   1.47067302692041E-11
     -1.67793743416022E-06   7.80829380544273E-13  -1.67793746766250E-06  -1.67793768923730E-06   1.67793746766250E-06
     -6.68487739509279E-13  -1.47067302692041E-14
      6.88750000000000E-07
      2.50000000000000E+02   2.50000000000000E+02   2.49999999983221E+02   0.00000000000000E+00   1.46867007113821E-11
     -1.67793747928201E-06   7.77534366780567E-13  -1.67793746864050E-06  -1.67793768923730E-06   1.67793746864050E-06
     -6.67577305062824E-13  -1.46867007113821E-14
      7.12500000000000E-07
      2.50000000000000E+02   2.50000000000000E+02   2.49999999983221E+02   0.00000000000000E+00   1.46387901108094E-11
     -1.67793746474132E-06   7.83327586013193E-13  -1.67793749308974E-06  -1.67793768923730E-06   1.67793749308974E-06
     -6.65399550491335E-13  -1.46387901108094E-14
      7.36250000000000E-07
      2.50000000000000E+02   2.50000000000000E+02   2.49999999983221E+02   0.00000000000000E+00   1.46110123308492E-11
     -1.67793745156630E-06   7.70791549536999E-13  -1.67793741345795E-06  -1.67793768923730E-06   1.67793741345795E-06
     -6.64136924129508E-13  -1.46110123308492E-14
      7.60000000000000E-07
      2.50000000000000E+02   2.50000000000000E+02   2.49999999983221E+02   0.00000000000000E+00   1.45398631766577E-11
     -1.67793744519842E-06   7.81898588640544E-13  -1.67793743742843E-06  -1.67793768923730E-06   1.67793743742843E-06
     -6.60902871666258E-13  -1.45398631766577E-14
      7.83750000000000E-07
      2.50000000000000E+02   2.50000000000000E+02   2.49999999983221E+02   0.00000000000000E+00   1.44993689379769E-11
     -1.67793746162947E-06   7.65663076299453E-13  -1.67793741486879E-06  -1.67793768923730E-06   1.67793741486879E-06
     -6.59062224453494E-13  -1.44993689379769E-14
      8.07500000000000E-07
      2.50000000000000E+02   2.50000000000000E+02   2.49999999983221E+02   0.00000000000000E+00   1.44386345394756E-11
     -1.67793745230851E-06   7.68335515146454E-13  -1.67793749748532E-06  -1.67793405125849E-06   1.67793749748532E-06
     -6.56301569976163E-13  -1.44386345394756E-14
      8.31250000000000E-07
      2.50000000000000E+02   2.50000000000000E+02   2.49999999983221E+02   0.00000000000000E+00   1.43925722566556E-11
     -1.67793746076278E-06   7.59338660535414E-13  -1.67793744061197E-06  -1.67793768923730E-06   1.67793744061197E-06
     -6.54207829847983E-13  -1.43925722566556E-14
      8.55000000000000E-07
      2.50000000000000E+02   2.50000000000000E+02   2.49999999983221E+02   0.00000000000000E+00   1.43395934785878E-11
     -1.67793745054085E-06   7.56572219750002E-13  -1.67793742602935E-06  -1.67793768923730E-06   1.67793742602935E-06
     -6.51799703572173E-13  -1.43395934785878E-14
      8.78750000000000E-07
      2.50000000000000E+02   2.50000000000000E+02   2.49999999983221E+02   0.00000000000000E+00   1.43047061096922E-11
     -1.67793743733992E-06   7.44558304294976E-13  -1.67793743427585E-06  -1.67793768923730E-06   1.67793743427585E-06
     -6.50213914076920E-13  -1.43047061096922E-14
      9.02500000000000E-07
      2.50000000000000E+02   2.50000000000000E+02   2.49999999983221E+02   0.00000000000000E+00   1.42157883317797E-11
     -1.67793747472687E-06   7.63123290017089E-13  -1.67793742023987E-06  -1.67793768923730E-06   1.67793742023987E-06
     -6.46172196899076E-13  -1.42157883317797E-14
      9.26250000000000E-07
      2.50000000000000E+02   2.50000000000000E+02   2.49999999983221E+02   0.00000000000000E+00   1.41562680752379E-11
     -1.67793744400611E-06   7.46342389894454E-13  -1.67793747683826E-06  -1.67793768923730E-06   1.67793747683826E-06
     -6.43466730692632E-13  -1.41562680752379E-14
      9.50000000000000E-07
      2.50000000000000E+02   2.50000000000000E+02   2.49999999983221E+02   0.00000000000000E+00   1.41188020331625E-11
     -1.67793745768841E-06   7.33911724196031E-13  -1.67793747475892E-06  -1.67793768923730E-06   1.67793747475892E-06
     -6.41763728780112E-13  -1.41188020331625E-14
      9.50000000000000E-07
      2.50000000000000E+02   2.50000000000000E+02   2.49999999983221E+02   0.00000000000000E+00   1.41188020331625E-11
     -1.67793745778731E-06   7.33911724196031E-13  -1.67793747475892E-06  -1.67793768923730E-06   1.67793747475892E-06
     -6.41763728780112E-13  -1.41188020331625E-14
      9.51666666666667E-07
      2.50000000000000E+02   2.49999999999251E+02   2.49999999982471E+02   0.00000000000000E+00   4.96972464920597E-12
     -1.67798719732612E-06   4.33043177034831E-12  -1.67798533244184E-06  -1.67798498296179E-06   1.67798533244184E-06
     -2.25896574963908E-13  -4.96972464920597E-15
      9.53333333333333E-07
      2.50000000000000E+02   2.49999999999740E+02   2.49999999982960E+02   0.00000000000000E+00   1.02237885614689E-11
     -1.67800268094373E-06   6.12067536422504E-12  -1.67800508796912E-06  -1.67801044881344E-06   1.67800508796912E-06
     -4.64717661884949E-13  -1.02237885614689E-14
      9.55000000000000E-07
      2.50000000000000E+02   2.50000000000171E+02   2.49999999983391E+02   0.00000000000000E+00   1.47589817629012E-11
     -1.67792812671648E-06   3.57747440944274E-10  -1.67799549787234E-06  -1.67799953487702E-06   1.67799549787234E-06
     -6.70862807404602E-13  -1.47589817629012E-14
      9.56666666666667E-07
      2.50000000000000E+02   2.50000000000425E+02   2.49999999983645E+02   0.00000000000000E+00   1.75276964142318E-11
     -1.67797111641561E-06   2.23663092744666E-12  -1.67797187601003E-06  -1.67797043104656E-06   1.67797187601003E-06
     -7.96713473374172E-13  -1.75276964142318E-14
      9.58333333333333E-07
      2.50000000000000E+02   2.50000000000479E+02   2.49999999983699E+02   0.00000000000000E+00   1.78845199535715E-11
     -1.67794489453962E-06   2.35084445905349E-12  -1.67794527989183E-06  -1.67794132721610E-06   1.67794527989183E-06
     -8.12932725162342E-13  -1.78845199535715E-14
      9.60000000000000E-07
      2.50000000000000E+02   2.50000000000381E+02   2.49999999983601E+02   0.00000000000000E+00   1.64980627046114E-11
     -1.67792437605242E-06   2.18626668420728E-12  -1.67792412886444E-06  -1.67793041327968E-06   1.67792412886444E-06
     -7.49911941118698E-13  -1.64980627046114E-14
      9.61666666666667E-07
      2.50000000000000E+02   2.50000000000195E+02   2.49999999983416E+02   0.00000000000000E+00   1.40925747546828E-11
     -1.67791312038512E-06   2.16407841987914E-12  -1.67791326886253E-06  -1.67791222338565E-06   1.67791326886253E-06
     -6.40571579758307E-13  -1.40925747546828E-14
      9.63333333333334E-07
      2.50000000000000E+02   2.50000000000013E+02   2.49999999983234E+02   0.00000000000000E+00   1.17245816130654E-11
     -1.67791319322929E-06   2.08392666762504E-12  -1.67791256726104E-06  -1.67790858540684E-06   1.67791256726104E-06
     -5.32935527866607E-13  -1.17245816130654E-14
      9.65000000000000E-07
      2.50000000000000E+02   2.49999999999879E+02   2.49999999983100E+02   0.00000000000000E+00   9.95035619523701E-12
     -1.67791977282436E-06   1.94473382861748E-12  -1.67791929260967E-06  -1.67791949934326E-06   1.67791929260967E-06
     -4.52288917965319E-13  -9.95035619523701E-15
      9.66666666666667E-07
      2.50000000000000E+02   2.49999999999817E+02   2.49999999983038E+02   0.00000000000000E+00   9.07152230182751E-12
     -1.67792938539556E-06   1.62761196708158E-12  -1.67792943779637E-06  -1.67792677530088E-06   1.67792943779637E-06
     -4.12341922810341E-13  -9.07152230182751E-15
      9.68333333333334E-07
      2.50000000000000E+02   2.49999999999828E+02   2.49999999983049E+02   0.00000000000000E+00   8.97808489634415E-12
     -1.67793877026570E-06   1.97502317338356E-12  -1.67793898178678E-06  -1.67793768923730E-06   1.67793898178678E-06
     -4.08094768015643E-13  -8.97808489634415E-15
      9.70000000000000E-07
      2.50000000000000E+02   2.49999999999886E+02   2.49999999983106E+02   0.00000000000000E+00   9.45220028663478E-12
     -1.67794501106374E-06   1.86498654868043E-12  -1.67794531940312E-06  -1.67794860317372E-06   1.67794531940312E-06
     -4.29645467574308E-13  -9.45220028663478E-15
      9.71666666666667E-07
      2.50000000000000E+02   2.49999999999959E+02   2.49999999983179E+02   0.00000000000000E+00   1.01164932447780E-11
     -1.67794718424547E-06   1.78612983646014E-12  -1.67794761992587E-06  -1.67794860317372E-06   1.67794761992587E-06
     -4.59840602035364E-13  -1.01164932447780E-14
      9.73333333333334E-07
      2.50000000000000E+02   2.50000000000023E+02   2.49999999983244E+02   0.00000000000000E+00   1.06741080568899E-11
     -1.67794593462782E-06   1.87703771983661E-12  -1.67794631863663E-06  -1.67794132721610E-06   1.67794631863663E-06
     -4.85186729858634E-13  -1.06741080568899E-14
      9.75000000000001E-07
      2.50000000000000E+02   2.50000000000066E+02   2.49999999983287E+02   0.00000000000000E+00   1.09733829194677E-11
     -1.67794309475658E-06   1.89426739619420E-12  -1.67794263912351E-06  -1.67794132721610E-06   1.67794263912351E-06
     -4.98790132703076E-13  -1.09733829194677E-14
      9.76666666666667E-07
      2.50000000000000E+02   2.50000000000076E+02   2.49999999983297E+02   0.00000000000000E+00   1.09305433752111E-11
     -1.67793888505848E-06   1.64570335529372E-12  -1.67793841142385E-06  -1.67793768923730E-06   1.67793841142385E-06
     -4.96842880691415E-13  -1.09305433752111E-14
      9.78333333333334E-07
      2.50000000000000E+02   2.50000000000060E+02   2.49999999983281E+02   0.00000000000000E+00   1.05559733384483E-11
     -1.67793532747275E-06   1.84034764762941E-12  -1.67793505543962E-06  -1.67793768923730E-06   1.67793505543962E-06
     -4.79816969929470E-13  -1.05559733384483E-14
      9.80000000000001E-07
      2.50000000000000E+02   2.50000000000028E+02   2.49999999983249E+02   0.00000000000000E+00   9.95494834852419E-12
     -1.67793330550936E-06   2.03068567162589E-12  -1.67793349201827E-06  -1.67793041327968E-06   1.67793349201827E-06
     -4.52497652205645E-13  -9.95494834852419E-15
      9.81666666666668E-07
      2.50000000000000E+02   2.50000000000002E+02   2.49999999983223E+02   0.00000000000000E+00   9.48531828696455E-12
     -1.67793393213072E-06   1.66277890412050E-12  -1.67793338860681E-06  -1.67793405125849E-06   1.67793338860681E-06
     -4.31150831225661E-13  -9.48531828696455E-15
      9.83333333333334E-07
      2.50000000000000E+02   2.49999999999977E+02   2.49999999983198E+02   0.00000000000000E+00   8.99215200870973E-12
     -1.67793415435713E-06   1.89577415092972E-12  -1.67793467120912E-06  -1.67793405125849E-06   1.67793467120912E-06
     -4.08734182214079E-13  -8.99215200870973E-15
      9.85000000000001E-07
      2.50000000000000E+02   2.49999999999966E+02   2.49999999983187E+02   0.00000000000000E+00   8.68261108956666E-12
     -1.67793605429252E-06   1.76749276181110E-12  -1.67793656214022E-06  -1.67793768923730E-06   1.67793656214022E-06
     -3.94664140434848E-13  -8.68261108956666E-15
      9.86666666666668E-07
      2.50000000000000E+02   2.49999999999971E+02   2.49999999983191E+02   0.00000000000000E+00   8.55856569737135E-12
     -1.67793820924932E-06   1.75371779812744E-12  -1.67793818703511E-06  -1.67793768923730E-06   1.67793818703511E-06
     -3.89025713516879E-13  -8.55856569737135E-15
      9.88333333333334E-07
      2.50000000000000E+02   2.49999999999982E+02   2.49999999983202E+02   0.00000000000000E+00   8.44003065797070E-12
     -1.67793896521984E-06   2.15115520422345E-12  -1.67793920593392E-06  -1.67793768923730E-06   1.67793920593392E-06
     -3.83637757180486E-13  -8.44003065797070E-15
      9.90000000000001E-07
      2.50000000000000E+02   2.49999999999994E+02   2.49999999983215E+02   0.00000000000000E+00   8.42168153401262E-12
     -1.67793877574773E-06   1.67545133294863E-12  -1.67793952411820E-06  -1.67793768923730E-06   1.67793952411820E-06
     -3.82803706091483E-13  -8.42168153401262E-15
      9.91666666666668E-07
      2.50000000000000E+02   2.50000000000011E+02   2.49999999983231E+02   0.00000000000000E+00   8.48183357492779E-12
     -1.67793988512409E-06   1.48832474163053E-12  -1.67793892529780E-06  -1.67794496519491E-06   1.67793892529780E-06
     -3.85537889769445E-13  -8.48183357492779E-15
      9.93333333333335E-07
      2.50000000000000E+02   2.50000000000013E+02   2.49999999983233E+02   0.00000000000000E+00   8.28131940169067E-12
     -1.67793775932391E-06   2.00072380532773E-12  -1.67793823039177E-06  -1.67794496519491E-06   1.67793823039177E-06
     -3.76423609167758E-13  -8.28131940169067E-15
      9.95000000000001E-07
      2.50000000000000E+02   2.50000000000009E+02   2.49999999983230E+02   0.00000000000000E+00   8.11207829579036E-12
     -1.67793695599447E-06   1.48721254565095E-12  -1.67793771118905E-06  -1.67793768923730E-06   1.67793771118905E-06
     -3.68730831626835E-13  -8.11207829579036E-15
      9.96666666666668E-07
      2.50000000000000E+02   2.50000000000008E+02   2.49999999983229E+02   0.00000000000000E+00   7.94723539199849E-12
     -1.67793723834347E-06   1.59110595382203E-12  -1.67793726169360E-06  -1.67793768923730E-06   1.67793726169360E-06
     -3.61237972363568E-13  -7.94723539199849E-15
      9.98333333333335E-07
      2.50000000000000E+02   2.50000000000006E+02   2.49999999983227E+02   0.00000000000000E+00   7.77580856763259E-12
     -1.67793742234169E-06   1.57398800015063E-12  -1.67793692140130E-06  -1.67793768923730E-06   1.67793692140130E-06
     -3.53445843983300E-13  -7.77580856763259E-15
      1.00000000000000E-06
      2.50000000000000E+02   2.49999999999999E+02   2.49999999983220E+02   0.00000000000000E+00   7.55304968289041E-12
     -1.67793662083619E-06   1.54708606267741E-12  -1.67793695636251E-06  -1.67793768923730E-06   1.67793695636251E-06
     -3.43320440131382E-13  -7.55304968289041E-15
      1.00166666666667E-06
      2.50000000000000E+02   2.50001399909699E+02   2.50001400670648E+02   5.00000000000462E-01   3.88127089417114E-03
      7.60948243420233E-05  -2.25469700511343E-02   7.60948241207290E-05   7.60948241804727E-05  -7.60948241207290E-05
      2.25508513230132E-02  -3.88127089417114E-06
      1.00333333333333E-06
      2.50000000000000E+02   2.50003360326225E+02   2.50003362954022E+02   1.00000000000048E+00   1.16031036640639E-02
      2.62779613959374E-04  -4.49155285468320E-02   2.62779614421201E-04   2.62779612967279E-04  -2.62779614421201E-04
      4.49271316516552E-02  -1.16031036640639E-05
      1.00500000000000E-06
      2.50000000000000E+02   2.50005129374815E+02   2.50005134852264E+02   1.50000000000050E+00   2.31337526693924E-02
      5.47744881437306E-04  -6.71071502153460E-02   5.47744881941363E-04   5.47744886716828E-04  -5.47744881941363E-04
      6.71302839695956E-02  -2.31337526693924E-05
      1.00666666666667E-06
      2.50000000000000E+02   2.50006236040012E+02   2.50006244981928E+02   2.00000000000051E+00   3.84484219222815E-02
      8.94191548820703E-04  -8.91229869444358E-02   8.94191549281713E-04   8.94191547558876E-04  -8.94191549281713E-04
      8.91614353671923E-02  -3.84484219222815E-05
      1.00833333333334E-06
      2.50000000000000E+02   2.50006545566057E+02   2.50006558144398E+02   2.50000000000053E+00   5.75297233998227E-02
      1.25783410795251E-03  -1.10963846486649E-01   1.25783410802045E-03   1.25783410476288E-03  -1.25783410802045E-03
      1.11021376209123E-01  -5.75297233998227E-05
      1.01000000000000E-06
      2.50000000000000E+02   2.50006199344058E+02   2.50006215366479E+02   3.00000000000055E+00   8.03668136410180E-02
      1.60224211064769E-03  -1.32630232567168E-01   1.60224211122749E-03   1.60224210776505E-03  -1.60224211122749E-03
      1.32710599379979E-01  -8.03668136410180E-05
      1.01166666666667E-06
      2.50000000000000E+02   2.50005491263913E+02   2.50005510337036E+02   3.50000000000056E+00   1.06953798052854E-01
      1.90731232828159E-03  -1.54122419017806E-01   1.90731232859495E-03   1.90731232942198E-03  -1.90731232859495E-03
      1.54229372815805E-01  -1.06953798052854E-04
      1.01333333333334E-06
      2.50000000000000E+02   2.50004735818097E+02   2.50004757522230E+02   4.00000000000058E+00   1.37288040611386E-01
      2.17041333305814E-03  -1.75440528293384E-01   2.17041333396067E-03   2.17041333598900E-03  -2.17041333396067E-03
      1.75577816335872E-01  -1.37288040611386E-04
      1.01500000000000E-06
      2.50000000000000E+02   2.50004169269658E+02   2.50004193290052E+02   4.50000000000060E+00   1.71368856316041E-01
      2.40203942626048E-03  -1.96584592220163E-01   2.40203942604459E-03   2.40203942303197E-03  -2.40203942604459E-03
      1.96755961076571E-01  -1.71368856316041E-04
      1.01666666666667E-06
      2.50000000000000E+02   2.50003903195982E+02   2.50003929384818E+02   5.00000000000061E+00   2.09196809886269E-01
      2.61888364776296E-03  -2.17554584559403E-01   2.61888364726686E-03   2.61888364912011E-03  -2.61888364726686E-03
      2.17763781368834E-01  -2.09196809886269E-04
      1.01833333333334E-06
      2.50000000000000E+02   2.50003928555918E+02   2.50003956927286E+02   5.50000000000063E+00   2.50773596693718E-01
      2.83713675383321E-03  -2.38350426553645E-01   2.83713675382948E-03   2.83713675162289E-03  -2.83713675382948E-03
      2.38601200150314E-01  -2.50773596693718E-04
      1.02000000000000E-06
      2.50000000000000E+02   2.50004154088513E+02   2.50004184767708E+02   6.00000000000065E+00   2.96102310685504E-01
      3.06791944958804E-03  -2.58971974474306E-01   3.06791944902052E-03   3.06791944603901E-03  -3.06791944902052E-03
      2.59268076787052E-01  -2.96102310685504E-04
      1.02166666666667E-06
      2.50000000000000E+02   2.50004457537650E+02   2.50004490693255E+02   6.50000000000066E+00   3.45187836940967E-01
      3.31556042873538E-03  -2.79419001393973E-01   3.31556042958781E-03   3.31556043238379E-03  -3.31556042958781E-03
      2.79764189229986E-01  -3.45187836940967E-04
      1.02333333333334E-06
      2.50000000000000E+02   2.50004730796556E+02   2.50004766580381E+02   7.00000000000068E+00   3.98037133063980E-01
      3.57838245987419E-03  -2.99691184092103E-01   3.57838246047358E-03   3.57838246054598E-03  -3.57838246047358E-03
      3.00089221224396E-01  -3.98037133063980E-04
      1.02500000000000E-06
      2.50000000000000E+02   2.50004907466455E+02   2.50004945976650E+02   7.50000000000070E+00   4.54659247823329E-01
      3.85101948612653E-03  -3.19788102214013E-01   3.85101948577291E-03   3.85101948631927E-03  -3.85101948577291E-03
      3.20242761462608E-01  -4.54659247823329E-04
      1.02666666666667E-06
      2.50000000000000E+02   2.50004969922397E+02   2.50005011193660E+02   8.00000000000072E+00   5.15065031858223E-01
      4.12712628496649E-03  -3.39709251701882E-01   4.12712628562875E-03   4.12712628894951E-03  -4.12712628562875E-03
      3.40224316733750E-01  -5.15065031858223E-04
      1.02833333333334E-06
      2.50000000000000E+02   2.50004939895193E+02   2.50004983910842E+02   8.50000000000073E+00   5.79266606677586E-01
      4.40156490816979E-03  -3.59454069452961E-01   4.40156490747918E-03   4.40156491094967E-03  -4.40156490747918E-03
      3.60033336060143E-01  -5.79266606677586E-04
      1.03000000000000E-06
      2.50000000000000E+02   2.50004860272193E+02   2.50004906987993E+02   9.00000000000075E+00   6.47276758114260E-01
      4.67158002924698E-03  -3.79021961509450E-01   4.67158002929498E-03   4.67158003084478E-03  -4.67158002929498E-03
      3.79669238267568E-01  -6.47276758114260E-04
      1.03166666666667E-06
      2.50000000000000E+02   2.50004776132057E+02   2.50004825501264E+02   9.50000000000077E+00   7.19108458358896E-01
      4.93692069961156E-03  -3.98412325253768E-01   4.93692069915070E-03   4.93692070449470E-03  -4.93692069915070E-03
      3.99131433710994E-01  -7.19108458358896E-04
      1.03333333333334E-06
      2.50000000000000E+02   2.50004720829690E+02   2.50004772821580E+02   1.00000000000008E+01   7.94774628713961E-01
      5.19918901450042E-03  -4.17624560429791E-01   5.19918901525390E-03   5.19918901045457E-03  -5.19918901525390E-03
      4.18419335058492E-01  -7.94774628713961E-04
      1.03500000000000E-06
      2.50000000000000E+02   2.50004709609117E+02   2.50004764217456E+02   1.05000000000008E+01   8.74288013502016E-01
      5.46083396671496E-03  -4.36658075008730E-01   5.46083396618334E-03   5.46083397057373E-03  -5.46083396618334E-03
      4.37532363022672E-01  -8.74288013502016E-04
      1.03666666666667E-06
      2.50000000000000E+02   2.50004740145739E+02   2.50004797387493E+02   1.10000000000008E+01   9.57660773510576E-01
      5.72417539637102E-03  -4.55512304067559E-01   5.72417539611953E-03   5.72417540024617E-03  -5.72417539611953E-03