DF-ISE text

Info {
  version   = 1.0
  type      = xyplot
  datasets  = [
    "time"
    "gate OuterVoltage" "gate InnerVoltage" "gate QuasiFermiPotential" "gate DisplacementCurrent" "gate eCurrent"
    "gate hCurrent" "gate TotalCurrent" "gate Charge" "emitter OuterVoltage" "emitter InnerVoltage"
    "emitter QuasiFermiPotential" "emitter DisplacementCurrent" "emitter eCurrent" "emitter hCurrent" "emitter TotalCurrent"
    "emitter Charge" "collector OuterVoltage" "collector InnerVoltage" "collector QuasiFermiPotential" "collector DisplacementCurrent"
    "collector eCurrent" "collector hCurrent" "collector TotalCurrent" "collector Charge" ]
  functions = [
    Time
    OuterVoltage InnerVoltage QuasiFermiPotential DisplacementCurrent eCurrent
    hCurrent TotalCurrent Charge OuterVoltage InnerVoltage
    QuasiFermiPotential DisplacementCurrent eCurrent hCurrent TotalCurrent
    Charge OuterVoltage InnerVoltage QuasiFermiPotential DisplacementCurrent
    eCurrent hCurrent TotalCurrent Charge ]
}

Data {
      0.00000000000000E+00
      0.00000000000000E+00   0.00000000000000E+00   0.00000000000000E+00   0.00000000000000E+00   0.00000000000000E+00
      0.00000000000000E+00   0.00000000000000E+00   1.05691292252511E-08   0.00000000000000E+00   0.00000000000000E+00
      0.00000000000000E+00   0.00000000000000E+00  -1.39882300505026E-16   7.47773331314856E-22  -1.39881552731694E-16
     -1.35363217601817E-08   0.00000000000000E+00   0.00000000000000E+00   0.00000000000000E+00   0.00000000000000E+00
     -9.32344580369470E-24  -3.78755145335538E-24  -1.31109972570501E-23  -8.35183064430004E-08
      8.33333333333333E-03
      0.00000000000000E+00   0.00000000000000E+00   0.00000000000000E+00   0.00000000000000E+00   0.00000000000000E+00
      0.00000000000000E+00   0.00000000000000E+00  -6.48685507648776E-09   0.00000000000000E+00   1.83689474415054E-16
      0.00000000000000E+00   0.00000000000000E+00  -3.77837018636616E-12  -2.16007597382314E-07  -2.16011375752501E-07
     -3.20799639275523E-08   1.25000000000000E+01   1.25000000000000E+01   0.00000000000000E+00   0.00000000000000E+00
      1.61971454615163E-07   5.40399211373370E-08   2.16011375752500E-07  -6.48070535519642E-08
      1.66666666666667E-02
      0.00000000000000E+00   0.00000000000000E+00   0.00000000000000E+00   0.00000000000000E+00   0.00000000000000E+00
      0.00000000000000E+00   0.00000000000000E+00  -8.61074140629353E-09   0.00000000000000E+00   4.59223686037634E-16
      0.00000000000000E+00   0.00000000000000E+00  -3.78121571088533E-12  -4.86974740720617E-07  -4.86978521936328E-07
     -3.55244090867006E-08   2.50000000000000E+01   2.50000000000000E+01   0.00000000000000E+00   0.00000000000000E+00
      3.65593487295487E-07   1.21385062656413E-07   4.86978549951900E-07  -6.25277608629677E-08
      2.50000000000000E-02
      0.00000000000000E+00   0.00000000000000E+00   0.00000000000000E+00   0.00000000000000E+00   0.00000000000000E+00
      0.00000000000000E+00   0.00000000000000E+00  -9.95030360175775E-09   0.00000000000000E+00   5.51068423245161E-16
      0.00000000000000E+00   0.00000000000000E+00  -3.78297711304724E-12  -5.40866956406355E-07  -5.40870739383468E-07
     -3.75770038571186E-08   3.75000000000000E+01   3.74999999999999E+01   0.00000000000000E+00   0.00000000000000E+00
      4.05708313656895E-07   1.35162425726763E-07   5.40870739383657E-07  -6.22361220108411E-08
      3.33333333333333E-02
      0.00000000000000E+00   0.00000000000000E+00   0.00000000000000E+00   0.00000000000000E+00   0.00000000000000E+00
      0.00000000000000E+00   0.00000000000000E+00  -1.17735718727685E-08   0.00000000000000E+00   6.42913160452687E-16
      0.00000000000000E+00   0.00000000000000E+00  -3.78561555398211E-12  -5.99084559780542E-07  -5.99088345396096E-07
     -3.97665847902687E-08   5.00000000000000E+01   5.00000000000000E+01   0.00000000000000E+00   0.00000000000000E+00
      4.49200966021929E-07   1.49887382564842E-07   5.99088348586771E-07  -6.19508340363896E-08
      4.16666666666667E-02
      0.00000000000000E+00   0.00000000000000E+00   0.00000000000000E+00   0.00000000000000E+00   0.00000000000000E+00
      0.00000000000000E+00   0.00000000000000E+00  -1.35242416387831E-08   0.00000000000000E+00   6.42913160452687E-16
      0.00000000000000E+00   0.00000000000000E+00  -3.78825652779172E-12  -6.40585921570775E-07  -6.40589709827303E-07
     -4.17663106714593E-08   6.25000000000000E+01   6.25000000000000E+01   0.00000000000000E+00   0.00000000000000E+00
      4.80042055183114E-07   1.60547654644606E-07   6.40589709827720E-07  -6.17647951907922E-08
      5.00000000000000E-02
      0.00000000000000E+00   0.00000000000000E+00   0.00000000000000E+00   0.00000000000000E+00   0.00000000000000E+00
      0.00000000000000E+00   0.00000000000000E+00  -1.51470178445416E-08   0.00000000000000E+00   6.42913160452687E-16
      0.00000000000000E+00   0.00000000000000E+00  -3.79086166020098E-12  -6.74453824222110E-07  -6.74457615083770E-07
     -4.35718531109810E-08   7.50000000000000E+01   7.49999999999997E+01   0.00000000000000E+00   0.00000000000000E+00
      5.05133504983481E-07   1.69324110099852E-07   6.74457615083333E-07  -6.16220470010374E-08
      5.83333333333333E-02
      0.00000000000000E+00   0.00000000000000E+00   0.00000000000000E+00   0.00000000000000E+00   0.00000000000000E+00
      0.00000000000000E+00   0.00000000000000E+00  -1.67941209073195E-08   0.00000000000000E+00   7.34757897660214E-16
      0.00000000000000E+00   0.00000000000000E+00  -3.79371374382465E-12  -7.01599061085394E-07  -7.01602854799138E-07
     -4.52988349972853E-08   8.75000000000000E+01   8.74999999999999E+01   0.00000000000000E+00   0.00000000000000E+00
      5.24985539954550E-07   1.76617314845543E-07   7.01602854800093E-07  -6.15140401099715E-08
      6.66666666666667E-02
      0.00000000000000E+00   0.00000000000000E+00   0.00000000000000E+00   0.00000000000000E+00   0.00000000000000E+00
      0.00000000000000E+00   0.00000000000000E+00  -1.84893890797746E-08   0.00000000000000E+00   8.26602634867741E-16
      0.00000000000000E+00   0.00000000000000E+00  -3.79778193660039E-12  -7.83358602779904E-07  -7.83362400561841E-07
     -4.70177868015465E-08   1.00000000000000E+02   1.00000000000000E+02   0.00000000000000E+00   0.00000000000000E+00
      5.85422737931093E-07   1.97939662630129E-07   7.83362400561223E-07  -6.12087196989624E-08
      7.50000000000000E-02
      0.00000000000000E+00   0.00000000000000E+00   0.00000000000000E+00   0.00000000000000E+00   0.00000000000000E+00
      0.00000000000000E+00   0.00000000000000E+00  -1.95063444105004E-08   0.00000000000000E+00   9.18447372075267E-16
      0.00000000000000E+00   0.00000000000000E+00  -3.79994104306578E-12  -9.00653467693665E-07  -9.00657267634708E-07
     -4.78962662089406E-08   1.12500000000000E+02   1.12500000000000E+02   0.00000000000000E+00   0.00000000000000E+00
      6.71358597824583E-07   2.29298669812863E-07   9.00657267637446E-07  -6.08248911849352E-08
      8.33333333333333E-02
      0.00000000000000E+00   0.00000000000000E+00   0.00000000000000E+00   0.00000000000000E+00   0.00000000000000E+00
      0.00000000000000E+00   0.00000000000000E+00  -2.05008337486684E-08   0.00000000000000E+00   1.01029210928279E-15
      0.00000000000000E+00   0.00000000000000E+00  -3.80185110793122E-12  -1.01691642352276E-06  -1.01692022537387E-06
     -4.87373174255908E-08   1.25000000000000E+02   1.25000000000000E+02   0.00000000000000E+00   0.00000000000000E+00
      7.57008932694578E-07   2.59911292683654E-07   1.01692022537823E-06  -6.04883844027655E-08
      9.16666666666667E-02
      0.00000000000000E+00   0.00000000000000E+00   0.00000000000000E+00   0.00000000000000E+00   0.00000000000000E+00
      0.00000000000000E+00   0.00000000000000E+00  -2.16172176002442E-08   0.00000000000000E+00   1.10213684649032E-15
      0.00000000000000E+00   0.00000000000000E+00  -3.80382595124318E-12  -1.06555904555529E-06  -1.06556284938124E-06
     -4.97067994949390E-08   1.37500000000000E+02   1.37499999999999E+02   0.00000000000000E+00   0.00000000000000E+00
      7.92145668436182E-07   2.73417180948832E-07   1.06556284938501E-06  -6.03612249245920E-08
      1.00000000000000E-01
      0.00000000000000E+00   0.00000000000000E+00   0.00000000000000E+00   0.00000000000000E+00   0.00000000000000E+00
      0.00000000000000E+00   0.00000000000000E+00  -2.27991462704317E-08   0.00000000000000E+00   1.10213684649032E-15
      0.00000000000000E+00   0.00000000000000E+00  -3.80587239745427E-12  -1.11468270940656E-06  -1.11468651527896E-06
     -5.07407856553818E-08   1.50000000000000E+02   1.49999999999999E+02   0.00000000000000E+00   0.00000000000000E+00
      8.27687559338121E-07   2.86999052943932E-07   1.11468661228205E-06  -6.02382095828177E-08
      1.08333333333333E-01
      0.00000000000000E+00   0.00000000000000E+00   0.00000000000000E+00   0.00000000000000E+00   0.00000000000000E+00
      0.00000000000000E+00   0.00000000000000E+00  -2.40163156067440E-08   0.00000000000000E+00   1.19398158369785E-15
      0.00000000000000E+00   0.00000000000000E+00  -3.80810105258829E-12  -1.16192842838385E-06  -1.16193223648490E-06
     -5.18062933215658E-08   1.62500000000000E+02   1.62500000000000E+02   0.00000000000000E+00   0.00000000000000E+00
      8.61954803798440E-07   2.99977542582635E-07   1.16193234638108E-06  -6.01245056455496E-08
      1.16666666666667E-01
      0.00000000000000E+00   0.00000000000000E+00   0.00000000000000E+00   0.00000000000000E+00   0.00000000000000E+00
      0.00000000000000E+00   0.00000000000000E+00  -2.52230192031269E-08   0.00000000000000E+00   1.19398158369785E-15
      0.00000000000000E+00   0.00000000000000E+00  -3.81009786911468E-12  -1.19832359825910E-06  -1.19832740835697E-06
     -5.28594003972723E-08   1.75000000000000E+02   1.75000000000000E+02   0.00000000000000E+00   0.00000000000000E+00
      8.88111563750881E-07   3.10215846480324E-07   1.19832741023121E-06  -6.00407130534426E-08
      1.25000000000000E-01
      0.00000000000000E+00   0.00000000000000E+00   0.00000000000000E+00   0.00000000000000E+00   0.00000000000000E+00
      0.00000000000000E+00   0.00000000000000E+00  -2.64458187514728E-08   0.00000000000000E+00   1.19398158369785E-15
      0.00000000000000E+00   0.00000000000000E+00  -3.81237861706372E-12  -1.22401416941591E-06  -1.22401798179452E-06
     -5.39282553210572E-08   1.87500000000000E+02   1.87500000000000E+02   0.00000000000000E+00   0.00000000000000E+00
      9.06312850890813E-07   3.17705130907013E-07   1.22401798179783E-06  -5.99838486191209E-08
      1.33333333333333E-01
      0.00000000000000E+00   0.00000000000000E+00   0.00000000000000E+00   0.00000000000000E+00   0.00000000000000E+00
      0.00000000000000E+00   0.00000000000000E+00  -2.76774218694674E-08   0.00000000000000E+00   1.28582632090537E-15
      0.00000000000000E+00   0.00000000000000E+00  -3.81474414760143E-12  -1.25482442310297E-06  -1.25482823784712E-06
     -5.49982993577230E-08   2.00000000000000E+02   2.00000000000000E+02   0.00000000000000E+00   0.00000000000000E+00
      9.28229456183934E-07   3.26598781716450E-07   1.25482823790038E-06  -5.99168723399967E-08
      1.41666666666667E-01
      0.00000000000000E+00   0.00000000000000E+00   0.00000000000000E+00   0.00000000000000E+00   0.00000000000000E+00
      0.00000000000000E+00   0.00000000000000E+00  -2.89160484077081E-08   0.00000000000000E+00   1.28582632090537E-15
      0.00000000000000E+00   0.00000000000000E+00  -3.81725199328990E-12  -1.31573881583367E-06  -1.31574263308567E-06
     -5.60666626768003E-08   2.12500000000000E+02   2.12500000000000E+02   0.00000000000000E+00   0.00000000000000E+00
      9.72081238135670E-07   3.43661394621604E-07   1.31574263275727E-06  -5.97874814676648E-08
      1.50000000000000E-01
      0.00000000000000E+00   0.00000000000000E+00   0.00000000000000E+00   0.00000000000000E+00   0.00000000000000E+00
      0.00000000000000E+00   0.00000000000000E+00  -3.01160291322771E-08   0.00000000000000E+00   1.37767105811290E-15
      0.00000000000000E+00   0.00000000000000E+00  -3.81981163071927E-12  -1.41757876219750E-06  -1.41758258200913E-06
     -5.70866078523942E-08   2.25000000000000E+02   2.25000000000000E+02   0.00000000000000E+00   0.00000000000000E+00
      1.04552136249317E-06   3.72061219537117E-07   1.41758258203029E-06  -5.95833221968004E-08
      1.58333333333333E-01
      0.00000000000000E+00   0.00000000000000E+00   0.00000000000000E+00   0.00000000000000E+00   0.00000000000000E+00
      0.00000000000000E+00   0.00000000000000E+00  -3.12475445261604E-08   0.00000000000000E+00   1.56136053252795E-15
      0.00000000000000E+00   0.00000000000000E+00  -3.82232390615113E-12  -1.54284141301229E-06  -1.54284523533620E-06
     -5.80273940253231E-08   2.37500000000000E+02   2.37500000000000E+02   0.00000000000000E+00   0.00000000000000E+00
      1.13551607968047E-06   4.07329155663212E-07   1.54284523534369E-06  -5.93518494354513E-08
      1.66666666666667E-01
      0.00000000000000E+00   0.00000000000000E+00   0.00000000000000E+00   0.00000000000000E+00   0.00000000000000E+00
      0.00000000000000E+00   0.00000000000000E+00  -3.23683584751574E-08   0.00000000000000E+00   1.65320526973548E-15
      0.00000000000000E+00   0.00000000000000E+00  -3.82489714479581E-12  -1.67605779414828E-06  -1.67606161904543E-06
     -5.89515268010255E-08   2.50000000000000E+02   2.50000000000000E+02   0.00000000000000E+00   0.00000000000000E+00
      1.23133263158101E-06   4.44728987240624E-07   1.67606161882164E-06  -5.91247441450058E-08
      1.75000000000000E-01
      0.00000000000000E+00   0.00000000000000E+00   0.00000000000000E+00   0.00000000000000E+00   0.00000000000000E+00
      0.00000000000000E+00   0.00000000000000E+00  -3.35138375358136E-08   0.00000000000000E+00   1.83689474415053E-15
      0.00000000000000E+00   0.00000000000000E+00  -3.82764849869449E-12  -1.79899842355649E-06  -1.79900225120499E-06
     -5.98950302564524E-08   2.62500000000000E+02   2.62500000000000E+02   0.00000000000000E+00   0.00000000000000E+00
      1.31989426580602E-06   4.79108003668269E-07   1.79900226947429E-06  -5.89300247647532E-08
      1.83333333333333E-01
      0.00000000000000E+00   0.00000000000000E+00   0.00000000000000E+00   0.00000000000000E+00   0.00000000000000E+00
      0.00000000000000E+00   0.00000000000000E+00  -3.46798266046936E-08   0.00000000000000E+00   1.92873948135806E-15
      0.00000000000000E+00   0.00000000000000E+00  -3.83024217538558E-12  -1.91234662732606E-06  -1.91235045756823E-06
     -6.08540296932962E-08   2.75000000000000E+02   2.74999999999998E+02   0.00000000000000E+00   0.00000000000000E+00
      1.40150773892408E-06   5.10842752776881E-07   1.91235049170097E-06  -5.87618142777061E-08
      1.91666666666667E-01
      0.00000000000000E+00   0.00000000000000E+00   0.00000000000000E+00   0.00000000000000E+00   0.00000000000000E+00
      0.00000000000000E+00   0.00000000000000E+00  -3.58698103977428E-08   0.00000000000000E+00   2.11242895577312E-15
      0.00000000000000E+00   0.00000000000000E+00  -3.85269187642205E-12  -2.12565343042144E-06  -2.12565728311331E-06
     -6.18310855101541E-08   2.87500000000000E+02   2.87499999999999E+02   0.00000000000000E+00   0.00000000000000E+00
      1.55619641477208E-06   5.69462590654028E-07   2.12565900542611E-06  -5.84682733879442E-08
      2.00000000000000E-01
      0.00000000000000E+00   0.00000000000000E+00   0.00000000000000E+00   0.00000000000000E+00   0.00000000000000E+00
      0.00000000000000E+00   0.00000000000000E+00  -3.70669111751376E-08   0.00000000000000E+00   2.47980790460322E-15
      0.00000000000000E+00   0.00000000000000E+00  -3.83987022171744E-12  -2.51259923979124E-06  -2.51260307966146E-06
     -6.28086405554531E-08   3.00000000000000E+02   2.99999999999999E+02   0.00000000000000E+00   0.00000000000000E+00
      1.83762465931574E-06   6.74978723795758E-07   2.51260338311150E-06  -5.80021690311797E-08
      2.08333333333333E-01
      0.00000000000000E+00   0.00000000000000E+00   0.00000000000000E+00   0.00000000000000E+00   0.00000000000000E+00
      0.00000000000000E+00   0.00000000000000E+00  -3.82657058427203E-08   0.00000000000000E+00   3.21456580226344E-15
      0.00000000000000E+00   0.00000000000000E+00  -3.57791945014756E-12  -3.25741673980467E-06  -3.25742031772412E-06
     -6.37807088372619E-08   3.12500000000000E+02   3.12499999999999E+02   0.00000000000000E+00   0.00000000000000E+00
      2.38006453164237E-06   8.77355788081735E-07   3.25742031972410E-06  -5.72768332549152E-08
      2.16666666666667E-01
      0.00000000000000E+00   0.00000000000000E+00   0.00000000000000E+00   0.00000000000000E+00   0.00000000000000E+00
      0.00000000000000E+00   0.00000000000000E+00  -3.94840623175076E-08   0.00000000000000E+00   5.87806318128171E-15
      0.00000000000000E+00   0.00000000000000E+00  -4.16738973419703E-12  -5.85379260580498E-06  -5.85379677319471E-06
     -6.47592006468253E-08   3.25000000000000E+02   3.24999999999999E+02   0.00000000000000E+00   0.00000000000000E+00
      4.27352197650672E-06   1.58027481230213E-06   5.85379678880885E-06  -5.56351362126909E-08
}
