DF-ISE text

Info {
  version   = 1.0
  type      = xyplot
  datasets  = [
    "time"
    "gate OuterVoltage" "gate InnerVoltage" "gate QuasiFermiPotential" "gate DisplacementCurrent" "gate eCurrent"
    "gate hCurrent" "gate TotalCurrent" "gate Charge" "emitter OuterVoltage" "emitter InnerVoltage"
    "emitter QuasiFermiPotential" "emitter DisplacementCurrent" "emitter eCurrent" "emitter hCurrent" "emitter TotalCurrent"
    "emitter Charge" "collector OuterVoltage" "collector InnerVoltage" "collector QuasiFermiPotential" "collector DisplacementCurrent"
    "collector eCurrent" "collector hCurrent" "collector TotalCurrent" "collector Charge" ]
  functions = [
    Time
    OuterVoltage InnerVoltage QuasiFermiPotential DisplacementCurrent eCurrent
    hCurrent TotalCurrent Charge OuterVoltage InnerVoltage
    QuasiFermiPotential DisplacementCurrent eCurrent hCurrent TotalCurrent
    Charge OuterVoltage InnerVoltage QuasiFermiPotential DisplacementCurrent
    eCurrent hCurrent TotalCurrent Charge ]
}

Data {
      0.00000000000000E+00
      0.00000000000000E+00   0.00000000000000E+00   0.00000000000000E+00   0.00000000000000E+00   0.00000000000000E+00
      0.00000000000000E+00   0.00000000000000E+00   1.01228775106657E-08   0.00000000000000E+00   0.00000000000000E+00
      0.00000000000000E+00   0.00000000000000E+00   3.13106243034119E-17   8.51798276763459E-19   3.21624225801754E-17
     -1.10621896876209E-08   0.00000000000000E+00   0.00000000000000E+00   0.00000000000000E+00   0.00000000000000E+00
     -6.29055008833653E-23  -1.62297491646010E-23  -7.91352500479663E-23  -8.35478154502921E-08
      8.33333333333333E-03
      0.00000000000000E+00   0.00000000000000E+00   0.00000000000000E+00   0.00000000000000E+00   0.00000000000000E+00
      0.00000000000000E+00   0.00000000000000E+00  -6.50602606001406E-10   0.00000000000000E+00   9.18447372075268E-17
      0.00000000000000E+00   0.00000000000000E+00  -4.37484698189666E-12  -8.60310897302395E-08  -8.60354645772214E-08
     -2.20449439319877E-08   1.25000000000000E+01   1.25000000000000E+01   0.00000000000000E+00   0.00000000000000E+00
      6.63382790823535E-08   1.96972843866829E-08   8.60355634690363E-08  -6.72840519760249E-08
      1.66666666666667E-02
      0.00000000000000E+00   0.00000000000000E+00   0.00000000000000E+00   0.00000000000000E+00   0.00000000000000E+00
      0.00000000000000E+00   0.00000000000000E+00  -5.24635510142173E-09   0.00000000000000E+00   9.18447372075268E-17
      0.00000000000000E+00   0.00000000000000E+00  -4.38374519906835E-12  -1.33663594604269E-07  -1.33667978349468E-07
     -2.72485666937017E-08   2.50000000000000E+01   2.50000000000001E+01   0.00000000000000E+00   0.00000000000000E+00
      1.02967965881260E-07   3.07000509049286E-08   1.33668016786189E-07  -6.60552470405391E-08
      2.50000000000000E-02
      0.00000000000000E+00   0.00000000000000E+00   0.00000000000000E+00   0.00000000000000E+00   0.00000000000000E+00
      0.00000000000000E+00   0.00000000000000E+00  -8.90666936835759E-09   0.00000000000000E+00   1.83689474415054E-16
      0.00000000000000E+00   0.00000000000000E+00  -4.38803024576985E-12  -1.70776899170851E-07  -1.70781287201096E-07
     -3.10825545859315E-08   3.75000000000000E+01   3.75000000000000E+01   0.00000000000000E+00   0.00000000000000E+00
      1.31442854231840E-07   3.93401275518307E-08   1.70782981783670E-07  -6.53723043034441E-08
      3.33333333333333E-02
      0.00000000000000E+00   0.00000000000000E+00   0.00000000000000E+00   0.00000000000000E+00   0.00000000000000E+00
      0.00000000000000E+00   0.00000000000000E+00  -1.21719195083088E-08   0.00000000000000E+00   1.83689474415054E-16
      0.00000000000000E+00   0.00000000000000E+00  -4.40114843108104E-12  -2.02290985653602E-07  -2.02295386802033E-07
     -3.41482033718199E-08   5.00000000000000E+01   5.00000000000001E+01   0.00000000000000E+00   0.00000000000000E+00
      1.55561855064646E-07   4.67335350365901E-08   2.02295390101236E-07  -6.49008263627643E-08
      4.16666666666667E-02
      0.00000000000000E+00   0.00000000000000E+00   0.00000000000000E+00   0.00000000000000E+00   0.00000000000000E+00
      0.00000000000000E+00   0.00000000000000E+00  -1.51900481730788E-08   0.00000000000000E+00   2.75534211622580E-16
      0.00000000000000E+00   0.00000000000000E+00  -4.41076607233438E-12  -2.32139811003881E-07  -2.32144221769954E-07
     -3.67658743053747E-08   6.25000000000000E+01   6.25000000000000E+01   0.00000000000000E+00   0.00000000000000E+00
      1.78348574145935E-07   5.37956476234272E-08   2.32144221769363E-07  -6.45181972363657E-08
      5.00000000000000E-02
      0.00000000000000E+00   0.00000000000000E+00   0.00000000000000E+00   0.00000000000000E+00   0.00000000000000E+00
      0.00000000000000E+00   0.00000000000000E+00  -1.80234364828247E-08   0.00000000000000E+00   2.75534211622580E-16
      0.00000000000000E+00   0.00000000000000E+00  -4.41949321551283E-12  -2.65170517760973E-07  -2.65174937254188E-07
     -3.91271749131377E-08   7.50000000000000E+01   7.49999999999999E+01   0.00000000000000E+00   0.00000000000000E+00
      2.03527266727485E-07   6.16476705335170E-08   2.65174937261002E-07  -6.41484716828240E-08
      5.83333333333333E-02
      0.00000000000000E+00   0.00000000000000E+00   0.00000000000000E+00   0.00000000000000E+00   0.00000000000000E+00
      0.00000000000000E+00   0.00000000000000E+00  -2.07170060454112E-08   0.00000000000000E+00   2.75534211622580E-16
      0.00000000000000E+00   0.00000000000000E+00  -4.42696432950689E-12  -3.02520416991870E-07  -3.02524843956199E-07
     -4.13220924623206E-08   8.75000000000000E+01   8.74999999999999E+01   0.00000000000000E+00   0.00000000000000E+00
      2.32006054324774E-07   7.05187896306684E-08   3.02524843955442E-07  -6.37817506990762E-08
      6.66666666666667E-02
      0.00000000000000E+00   0.00000000000000E+00   0.00000000000000E+00   0.00000000000000E+00   0.00000000000000E+00
      0.00000000000000E+00   0.00000000000000E+00  -2.32982467557757E-08   0.00000000000000E+00   3.67378948830107E-16
      0.00000000000000E+00   0.00000000000000E+00  -4.43359928499649E-12  -3.37430998497911E-07  -3.37435432097196E-07
     -4.33840600461520E-08   1.00000000000000E+02   1.00000000000000E+02   0.00000000000000E+00   0.00000000000000E+00
      2.58563315275989E-07   7.88721416452131E-08   3.37435456921202E-07  -6.34782305632888E-08
      7.50000000000000E-02
      0.00000000000000E+00   0.00000000000000E+00   0.00000000000000E+00   0.00000000000000E+00   0.00000000000000E+00
      0.00000000000000E+00   0.00000000000000E+00  -2.57816090734838E-08   0.00000000000000E+00   3.67378948830107E-16
      0.00000000000000E+00   0.00000000000000E+00  -4.43921027772276E-12  -3.70989565150439E-07  -3.70994004360716E-07
     -4.53372652939453E-08   1.12500000000000E+02   1.12500000000000E+02   0.00000000000000E+00   0.00000000000000E+00
      2.84036143813437E-07   8.69578611240422E-08   3.70994004937479E-07  -6.32150530838559E-08
      8.33333333333333E-02
      0.00000000000000E+00   0.00000000000000E+00   0.00000000000000E+00   0.00000000000000E+00   0.00000000000000E+00
      0.00000000000000E+00   0.00000000000000E+00  -2.81716329386708E-08   0.00000000000000E+00   3.67378948830107E-16
      0.00000000000000E+00   0.00000000000000E+00  -4.44504738957204E-12  -3.95459105080696E-07  -3.95463550128086E-07
     -4.71998553769847E-08   1.25000000000000E+02   1.25000000000000E+02   0.00000000000000E+00   0.00000000000000E+00
      3.02528410944442E-07   9.29351391853951E-08   3.95463550129837E-07  -6.30383734197213E-08
      9.16666666666667E-02
      0.00000000000000E+00   0.00000000000000E+00   0.00000000000000E+00   0.00000000000000E+00   0.00000000000000E+00
      0.00000000000000E+00   0.00000000000000E+00  -3.04807586493090E-08   0.00000000000000E+00   4.59223686037634E-16
      0.00000000000000E+00   0.00000000000000E+00  -4.45130851894644E-12  -4.30554193065198E-07  -4.30558644373717E-07
     -4.89749340598647E-08   1.37500000000000E+02   1.37500000000000E+02   0.00000000000000E+00   0.00000000000000E+00
      3.29104674115341E-07   1.01453970130426E-07   4.30558644245766E-07  -6.28024956897451E-08
      1.00000000000000E-01
      0.00000000000000E+00   0.00000000000000E+00   0.00000000000000E+00   0.00000000000000E+00   0.00000000000000E+00
      0.00000000000000E+00   0.00000000000000E+00  -3.27257932191725E-08   0.00000000000000E+00   4.59223686037634E-16
      0.00000000000000E+00   0.00000000000000E+00  -4.45622037389037E-12  -4.59064810653032E-07  -4.59069266873406E-07
     -5.06847153099572E-08   1.50000000000000E+02   1.50000000000000E+02   0.00000000000000E+00   0.00000000000000E+00
      3.50608381130961E-07   1.08460889422007E-07   4.59069270552968E-07  -6.26251725344208E-08
      1.08333333333333E-01
      0.00000000000000E+00   0.00000000000000E+00   0.00000000000000E+00   0.00000000000000E+00   0.00000000000000E+00
      0.00000000000000E+00   0.00000000000000E+00  -3.49030923802157E-08   0.00000000000000E+00   4.59223686037634E-16
      0.00000000000000E+00   0.00000000000000E+00  -4.46086491815796E-12  -4.88262440384526E-07  -4.88266901249444E-07
     -5.23370701873817E-08   1.62500000000000E+02   1.62500000000000E+02   0.00000000000000E+00   0.00000000000000E+00
      3.72612685415485E-07   1.15654187497096E-07   4.88266872912581E-07  -6.24546311652880E-08
      1.16666666666667E-01
      0.00000000000000E+00   0.00000000000000E+00   0.00000000000000E+00   0.00000000000000E+00   0.00000000000000E+00
      0.00000000000000E+00   0.00000000000000E+00  -3.70216948883481E-08   0.00000000000000E+00   5.51068423245161E-16
      0.00000000000000E+00   0.00000000000000E+00  -4.46460837776562E-12  -5.19154169721003E-07  -5.19158634329380E-07
     -5.39384809144233E-08   1.75000000000000E+02   1.75000000000000E+02   0.00000000000000E+00   0.00000000000000E+00
      3.95848455664527E-07   1.23310345288624E-07   5.19158800953151E-07  -6.22851398582381E-08
      1.25000000000000E-01
      0.00000000000000E+00   0.00000000000000E+00   0.00000000000000E+00   0.00000000000000E+00   0.00000000000000E+00
      0.00000000000000E+00   0.00000000000000E+00  -3.90916528522606E-08   0.00000000000000E+00   5.51068423245161E-16
      0.00000000000000E+00   0.00000000000000E+00  -4.46648009813771E-12  -5.47053621414077E-07  -5.47058087894175E-07
     -5.54962156636491E-08   1.87500000000000E+02   1.87500000000000E+02   0.00000000000000E+00   0.00000000000000E+00
      4.16763706758843E-07   1.30295290995270E-07   5.47058997754113E-07  -6.21408740834298E-08
      1.33333333333333E-01
      0.00000000000000E+00   0.00000000000000E+00   0.00000000000000E+00   0.00000000000000E+00   0.00000000000000E+00
      0.00000000000000E+00   0.00000000000000E+00  -4.11107064820410E-08   0.00000000000000E+00   5.51068423245161E-16
      0.00000000000000E+00   0.00000000000000E+00  -4.47212947810233E-12  -5.83369956629657E-07  -5.83374428759135E-07
     -5.70080877380694E-08   2.00000000000000E+02   2.00000000000001E+02   0.00000000000000E+00   0.00000000000000E+00
      4.44074795637427E-07   1.39299633058800E-07   5.83374428696228E-07  -6.19630025308083E-08
      1.41666666666667E-01
      0.00000000000000E+00   0.00000000000000E+00   0.00000000000000E+00   0.00000000000000E+00   0.00000000000000E+00
      0.00000000000000E+00   0.00000000000000E+00  -4.30921257139952E-08   0.00000000000000E+00   6.42913160452687E-16
      0.00000000000000E+00   0.00000000000000E+00  -4.47605582430682E-12  -6.15001056062068E-07  -6.15005532117893E-07
     -5.84845964293843E-08   2.12500000000000E+02   2.12500000000000E+02   0.00000000000000E+00   0.00000000000000E+00
      4.67798376724724E-07   1.47207151048164E-07   6.15005527772889E-07  -6.18171577222105E-08
      1.50000000000000E-01
      0.00000000000000E+00   0.00000000000000E+00   0.00000000000000E+00   0.00000000000000E+00   0.00000000000000E+00
      0.00000000000000E+00   0.00000000000000E+00  -4.50313876600709E-08   0.00000000000000E+00   6.42913160452687E-16
      0.00000000000000E+00   0.00000000000000E+00  -4.47977725159584E-12  -6.53129537099966E-07  -6.53134016877217E-07
     -5.99214055776586E-08   2.25000000000000E+02   2.24999999999999E+02   0.00000000000000E+00   0.00000000000000E+00
      4.96421263171586E-07   1.56712753711334E-07   6.53134016882921E-07  -6.16507276417134E-08
      1.58333333333333E-01
      0.00000000000000E+00   0.00000000000000E+00   0.00000000000000E+00   0.00000000000000E+00   0.00000000000000E+00
      0.00000000000000E+00   0.00000000000000E+00  -4.69400658827522E-08   0.00000000000000E+00   7.34757897660214E-16
      0.00000000000000E+00   0.00000000000000E+00  -4.45072859957269E-12  -6.88943681425470E-07  -6.88948132154070E-07
     -6.13298201828633E-08   2.37500000000000E+02   2.37500000000000E+02   0.00000000000000E+00   0.00000000000000E+00
      5.24210493115359E-07   1.65975882027343E-07   6.90186375142702E-07  -6.15031785630989E-08
      1.66666666666667E-01
      0.00000000000000E+00   0.00000000000000E+00   0.00000000000000E+00   0.00000000000000E+00   0.00000000000000E+00
      0.00000000000000E+00   0.00000000000000E+00  -4.88132457797961E-08   0.00000000000000E+00   7.34757897660214E-16
      0.00000000000000E+00   0.00000000000000E+00  -4.48555171222272E-12  -7.37357813321177E-07  -7.37362298872890E-07
     -6.27059119959984E-08   2.50000000000000E+02   2.50000000000000E+02   0.00000000000000E+00   0.00000000000000E+00
      5.59586725015221E-07   1.77775592669928E-07   7.37362317685149E-07  -6.13150455347227E-08
      1.75000000000000E-01
      0.00000000000000E+00   0.00000000000000E+00   0.00000000000000E+00   0.00000000000000E+00   0.00000000000000E+00
      0.00000000000000E+00   0.00000000000000E+00  -5.06601449754317E-08   0.00000000000000E+00   8.26602634867741E-16
      0.00000000000000E+00   0.00000000000000E+00  -4.07222222413349E-12  -7.85801919764048E-07  -7.85805991986272E-07
     -6.40580343804536E-08   2.62500000000000E+02   2.62500000000000E+02   0.00000000000000E+00   0.00000000000000E+00
      5.95916743818182E-07   1.89889336872000E-07   7.85806080690182E-07  -6.11387409950302E-08
      1.83333333333333E-01
      0.00000000000000E+00   0.00000000000000E+00   0.00000000000000E+00   0.00000000000000E+00   0.00000000000000E+00
      0.00000000000000E+00   0.00000000000000E+00  -5.24795623330069E-08   0.00000000000000E+00   8.26602634867741E-16
      0.00000000000000E+00   0.00000000000000E+00  -3.00253792313656E-12  -8.61698573528488E-07  -8.61701576066411E-07
     -6.53838942729422E-08   2.75000000000000E+02   2.74999999999999E+02   0.00000000000000E+00   0.00000000000000E+00
      6.52967250636024E-07   2.08734490820968E-07   8.61701741456992E-07  -6.08824755418416E-08
      1.91666666666667E-01
      0.00000000000000E+00   0.00000000000000E+00   0.00000000000000E+00   0.00000000000000E+00   0.00000000000000E+00
      0.00000000000000E+00   0.00000000000000E+00  -5.42813765394700E-08   0.00000000000000E+00   1.01029210928279E-15
      0.00000000000000E+00   0.00000000000000E+00  -3.46874108020090E-12  -9.93434972113475E-07  -9.93438440854555E-07
     -6.66878223466782E-08   2.87500000000000E+02   2.87500000000000E+02   0.00000000000000E+00   0.00000000000000E+00
      7.52257467204616E-07   2.41186512852802E-07   9.93443980057418E-07  -6.04856915714490E-08
      2.00000000000000E-01
      0.00000000000000E+00   0.00000000000000E+00   0.00000000000000E+00   0.00000000000000E+00   0.00000000000000E+00
      0.00000000000000E+00   0.00000000000000E+00  -5.61002013982728E-08   0.00000000000000E+00   1.46951579532043E-15
      0.00000000000000E+00   0.00000000000000E+00   1.34906582773947E-11  -1.49724094886381E-06  -1.49722745820553E-06
     -6.79748931062996E-08   3.00000000000000E+02   3.00000000000000E+02   0.00000000000000E+00   0.00000000000000E+00
      1.13288900070871E-06   3.64338794251378E-07   1.49722779496009E-06  -5.93377099207608E-08
}
