DF-ISE text

Info {
  version   = 1.0
  type      = xyplot
  datasets  = [
    "time"
    "gate OuterVoltage" "gate InnerVoltage" "gate QuasiFermiPotential" "gate DisplacementCurrent" "gate eCurrent"
    "gate hCurrent" "gate TotalCurrent" "gate Charge" "emitter OuterVoltage" "emitter InnerVoltage"
    "emitter QuasiFermiPotential" "emitter DisplacementCurrent" "emitter eCurrent" "emitter hCurrent" "emitter TotalCurrent"
    "emitter Charge" "collector OuterVoltage" "collector InnerVoltage" "collector QuasiFermiPotential" "collector DisplacementCurrent"
    "collector eCurrent" "collector hCurrent" "collector TotalCurrent" "collector Charge" ]
  functions = [
    Time
    OuterVoltage InnerVoltage QuasiFermiPotential DisplacementCurrent eCurrent
    hCurrent TotalCurrent Charge OuterVoltage InnerVoltage
    QuasiFermiPotential DisplacementCurrent eCurrent hCurrent TotalCurrent
    Charge OuterVoltage InnerVoltage QuasiFermiPotential DisplacementCurrent
    eCurrent hCurrent TotalCurrent Charge ]
}

Data {
      0.00000000000000E+00
      1.50000000000000E+01   1.50000000000000E+01   0.00000000000000E+00   0.00000000000000E+00   0.00000000000000E+00
      0.00000000000000E+00   0.00000000000000E+00   3.30803299786453E-07   0.00000000000000E+00   0.00000000000000E+00
      0.00000000000000E+00   0.00000000000000E+00  -5.37830710698126E-13  -3.52525072631028E-18  -5.37834235948852E-13
     -1.64317071086220E-07   0.00000000000000E+00   0.00000000000000E+00   0.00000000000000E+00   0.00000000000000E+00
      7.08192842003759E-23   7.08043989278990E-24   7.78997240931658E-23  -8.35478154502919E-08
      8.33333333333333E-03
      1.50000000000000E+01   1.50000000000000E+01   0.00000000000000E+00   0.00000000000000E+00   0.00000000000000E+00
      0.00000000000000E+00   0.00000000000000E+00   3.30803299786421E-07   0.00000000000000E+00   0.00000000000000E+00
      0.00000000000000E+00   0.00000000000000E+00  -9.78884008476418E-10  -5.29825037945013E-11  -1.03186651227092E-09
     -1.64317071117556E-07   4.16666666666667E-02   4.16666666666668E-02   0.00000000000000E+00   0.00000000000000E+00
      7.96643783756469E-10   2.34658714375082E-10   1.03130249813155E-09  -7.90512280373944E-08
      1.66666666666667E-02
      1.50000000000000E+01   1.50000000000000E+01   0.00000000000000E+00   0.00000000000000E+00   0.00000000000000E+00
      0.00000000000000E+00   0.00000000000000E+00   3.30803299786263E-07   0.00000000000000E+00   0.00000000000000E+00
      0.00000000000000E+00   0.00000000000000E+00  -5.85163855702692E-09  -3.21299360662466E-10  -6.17293791768938E-09
     -1.64317071261102E-07   8.33333333333333E-02   8.33333333333335E-02   0.00000000000000E+00   0.00000000000000E+00
      4.76753733992545E-09   1.40488576958954E-09   6.17242310951499E-09  -7.45513986290719E-08
      2.50000000000000E-02
      1.50000000000000E+01   1.50000000000000E+01   0.00000000000000E+00   0.00000000000000E+00   0.00000000000000E+00
      0.00000000000000E+00   0.00000000000000E+00   3.30803299785478E-07   0.00000000000000E+00   0.00000000000000E+00
      0.00000000000000E+00   0.00000000000000E+00  -3.00966526457858E-08  -1.73850441890995E-09  -3.18351570646958E-08
     -1.64317071757995E-07   1.25000000000000E-01   1.25000000000000E-01   0.00000000000000E+00   0.00000000000000E+00
      2.46006436675193E-08   7.23490069153143E-09   3.18355443590507E-08  -7.00484953674177E-08
      3.33333333333333E-02
      1.50000000000000E+01   1.50000000000000E+01   0.00000000000000E+00   0.00000000000000E+00   0.00000000000000E+00
      0.00000000000000E+00   0.00000000000000E+00   3.30803299781590E-07   0.00000000000000E+00   1.83689474415054E-16
      0.00000000000000E+00   0.00000000000000E+00  -1.50177904078916E-07  -9.67234643042760E-09  -1.59850250509344E-07
     -1.64317072657193E-07   1.66666666666667E-01   1.66666666666667E-01   0.00000000000000E+00   0.00000000000000E+00
      1.23676368541986E-07   3.61742560488109E-08   1.59850624590797E-07  -6.55426743466146E-08
      4.16666666666667E-02
      1.50000000000000E+01   1.50000000000000E+01   0.00000000000000E+00   0.00000000000000E+00   0.00000000000000E+00
      0.00000000000000E+00   0.00000000000000E+00   3.30803299762356E-07   0.00000000000000E+00   8.26602634867741E-16
      0.00000000000000E+00   0.00000000000000E+00  -7.44180804213051E-07  -5.40552041470141E-08  -7.98236008360065E-07
     -1.64317073594473E-07   2.08333333333333E-01   2.08333333333333E-01   0.00000000000000E+00   0.00000000000000E+00
      6.18587563989891E-07   1.79648577490883E-07   7.98236141480774E-07  -6.10340853397089E-08
      5.00000000000000E-02
      1.50000000000000E+01   1.50000000000000E+01   0.00000000000000E+00   0.00000000000000E+00   0.00000000000000E+00
      0.00000000000000E+00   0.00000000000000E+00   3.30803299666975E-07   0.00000000000000E+00   3.94932369992365E-15
      0.00000000000000E+00   0.00000000000000E+00  -3.68987011350476E-06  -2.92902792476044E-07  -3.98277290598081E-06
     -1.64317074552657E-07   2.50000000000000E-01   2.49999999999996E-01   0.00000000000000E+00   0.00000000000000E+00
      3.09057241990724E-06   8.92200766955497E-07   3.98277318686274E-06  -5.65228947530807E-08
      5.83333333333333E-02
      1.50000000000000E+01   1.50000000000000E+01   0.00000000000000E+00   0.00000000000000E+00   0.00000000000000E+00
      0.00000000000000E+00   0.00000000000000E+00   3.30803299192701E-07   0.00000000000000E+00   1.98384632368258E-14
      0.00000000000000E+00   0.00000000000000E+00  -1.83371222604582E-05  -1.53618596016236E-06  -1.98733082206206E-05
     -1.64317076242552E-07   2.91666666666667E-01   2.91666666666646E-01   0.00000000000000E+00   0.00000000000000E+00
      1.54351760293833E-05   4.43813262566380E-06   1.98733086550471E-05  -5.20093952167022E-08
      6.66666666666667E-02
      1.50000000000000E+01   1.50000000000000E+01   0.00000000000000E+00   0.00000000000000E+00   0.00000000000000E+00
      0.00000000000000E+00   0.00000000000000E+00   3.30803296831208E-07   0.00000000000000E+00   9.91004714469214E-14
      0.00000000000000E+00   0.00000000000000E+00  -9.12683593878719E-05  -7.87632264258138E-06  -9.91446820304533E-05
     -1.64317082185224E-07   3.33333333333333E-01   3.33333333333235E-01   0.00000000000000E+00   0.00000000000000E+00
      7.70445270599559E-05   2.21001557058840E-05   9.91446827658399E-05  -4.74945474169102E-08
      7.50000000000000E-02
      1.50000000000000E+01   1.50000000000000E+01   0.00000000000000E+00   0.00000000000000E+00   0.00000000000000E+00
      0.00000000000000E+00   0.00000000000000E+00   3.30803285089545E-07   0.00000000000000E+00   4.93665462490456E-13
      0.00000000000000E+00   0.00000000000000E+00  -4.53891565793563E-04  -3.98061604000505E-05  -4.93697726193614E-04
     -1.64317109770315E-07   3.75000000000000E-01   3.74999999999506E-01   0.00000000000000E+00   0.00000000000000E+00
      3.83770258019430E-04   1.09927467629358E-04   4.93697725648788E-04  -4.29826622303107E-08
      8.33333333333333E-02
      1.50000000000000E+01   1.50000000000000E+01   0.00000000000000E+00   0.00000000000000E+00   0.00000000000000E+00
      0.00000000000000E+00   0.00000000000000E+00   3.30803227364037E-07   0.00000000000000E+00   2.43535505179478E-12
      0.00000000000000E+00   0.00000000000000E+00  -2.23665185615844E-03  -1.98744624736795E-04  -2.43539648089523E-03
     -1.64317243948477E-07   4.16666666666667E-01   4.16666666664232E-01   0.00000000000000E+00   0.00000000000000E+00
      1.89367560957805E-03   5.41720870634021E-04   2.43539648021208E-03  -3.84943452854502E-08
      9.16666666666667E-02
      1.50000000000000E+01   1.50000000000000E+01   0.00000000000000E+00   0.00000000000000E+00   0.00000000000000E+00
      0.00000000000000E+00   0.00000000000000E+00   3.30802958344506E-07   0.00000000000000E+00   1.15129214984379E-11
      0.00000000000000E+00   0.00000000000000E+00  -1.05449382266507E-02  -9.67954613339264E-04  -1.15128928399899E-02
     -1.64317868243497E-07   4.58333333333333E-01   4.58333333321821E-01   0.00000000000000E+00   0.00000000000000E+00
      8.95838831414275E-03   2.55450452621487E-03   1.15128928403576E-02  -3.41215832952571E-08
      1.00000000000000E-01
      1.50000000000000E+01   1.50000000000000E+01   0.00000000000000E+00   0.00000000000000E+00   0.00000000000000E+00
      0.00000000000000E+00   0.00000000000000E+00   3.30801922668472E-07   0.00000000000000E+00   4.68732371680729E-11
      0.00000000000000E+00   0.00000000000000E+00  -4.25316280251574E-02  -4.34159977130036E-03  -4.68732277964578E-02
     -1.64320260742899E-07   5.00000000000000E-01   4.99999999953126E-01   0.00000000000000E+00   0.00000000000000E+00
      3.65537176285098E-02   1.03195101674801E-02   4.68732277959900E-02  -3.01623165106254E-08
      1.08333333333333E-01
      1.50000000000000E+01   1.50000000000000E+01   0.00000000000000E+00   0.00000000000000E+00   0.00000000000000E+00
      0.00000000000000E+00   0.00000000000000E+00   3.30799210968737E-07   0.00000000000000E+00   1.42111270036469E-10
      0.00000000000000E+00   0.00000000000000E+00  -1.26294566736006E-01  -1.58167238795560E-02  -1.42111290615562E-01
     -1.64326410836086E-07   5.41666666666667E-01   5.41666666524554E-01   0.00000000000000E+00   0.00000000000000E+00
      1.11247938902360E-01   3.08633517134105E-02   1.42111290615771E-01  -2.70280788981230E-08
      1.16666666666667E-01
      1.50000000000000E+01   1.50000000000000E+01   0.00000000000000E+00   0.00000000000000E+00   0.00000000000000E+00
      0.00000000000000E+00   0.00000000000000E+00   3.30794325741144E-07   0.00000000000000E+00   3.20051723126017E-10
      0.00000000000000E+00   0.00000000000000E+00  -2.77247061255847E-01  -4.28046598108264E-02  -3.20051721066674E-01
     -1.64337017785689E-07   5.83333333333333E-01   5.83333333013282E-01   0.00000000000000E+00   0.00000000000000E+00
      2.51220304765901E-01   6.88314163010569E-02   3.20051721066958E-01  -2.47376252460844E-08
      1.25000000000000E-01
      1.50000000000000E+01   1.50000000000000E+01   0.00000000000000E+00   0.00000000000000E+00   0.00000000000000E+00
      0.00000000000000E+00   0.00000000000000E+00   3.30787205513028E-07   0.00000000000000E+00   5.86951886537930E-10
      0.00000000000000E+00   0.00000000000000E+00  -4.97365310854100E-01  -8.95865817610873E-02  -5.86951892615187E-01
     -1.64351446481410E-07   6.25000000000000E-01   6.24999999413049E-01   0.00000000000000E+00   0.00000000000000E+00
      4.60879419486974E-01   1.26072473128141E-01   5.86951892615114E-01  -2.30386019500816E-08
      1.33333333333333E-01
      1.50000000000000E+01   1.50000000000000E+01   0.00000000000000E+00   0.00000000000000E+00   0.00000000000000E+00
      0.00000000000000E+00   0.00000000000000E+00   3.30777883727495E-07   0.00000000000000E+00   9.43129726752418E-10
      0.00000000000000E+00   0.00000000000000E+00  -7.85689276494391E-01  -1.57440462859929E-01  -9.43129739354320E-01
     -1.64368778820492E-07   6.66666666666667E-01   6.66666665723537E-01   0.00000000000000E+00   0.00000000000000E+00
      7.39654079637587E-01   2.03475659901156E-01   9.43129739538744E-01  -2.17233094842151E-08
      1.41666666666667E-01
      1.50000000000000E+01   1.50000000000000E+01   0.00000000000000E+00   0.00000000000000E+00   0.00000000000000E+00
      0.00000000000000E+00   0.00000000000000E+00   3.30766392028830E-07   0.00000000000000E+00   1.38803840020415E-09
      0.00000000000000E+00   0.00000000000000E+00  -1.14129561517047E+00  -2.46742699707356E-01  -1.38803831487782E+00
     -1.64388191193231E-07   7.08333333333333E-01   7.08333331945297E-01   0.00000000000000E+00   0.00000000000000E+00
      1.08646406152454E+00   3.01574253390572E-01   1.38803831491512E+00  -2.06636455171991E-08
      1.50000000000000E-01
      1.50000000000000E+01   1.50000000000000E+01   0.00000000000000E+00   0.00000000000000E+00   0.00000000000000E+00
      0.00000000000000E+00   0.00000000000000E+00   3.30752743923935E-07   0.00000000000000E+00   1.92154408911101E-09
      0.00000000000000E+00   0.00000000000000E+00  -1.56380782261538E+00  -3.57736224583604E-01  -1.92154404719899E+00
     -1.64409019153058E-07   7.50000000000000E-01   7.49999998078457E-01   0.00000000000000E+00   0.00000000000000E+00
      1.50075422071731E+00   4.20789826487031E-01   1.92154404720435E+00  -1.97819722343722E-08
      1.58333333333333E-01
      1.50000000000000E+01   1.50000000000000E+01   0.00000000000000E+00   0.00000000000000E+00   0.00000000000000E+00
      0.00000000000000E+00   0.00000000000000E+00   3.30736937421734E-07   0.00000000000000E+00   2.54400002833231E-09
      0.00000000000000E+00   0.00000000000000E+00  -2.05332403820812E+00  -4.90675994114867E-01  -2.54400003232299E+00
     -1.64430740610464E-07   7.91666666666667E-01   7.91666664122668E-01   0.00000000000000E+00   0.00000000000000E+00
      1.98248745293038E+00   5.61512579392481E-01   2.54400003232286E+00  -1.90295381072328E-08
      1.66666666666667E-01
      1.50000000000000E+01   1.50000000000000E+01   0.00000000000000E+00   0.00000000000000E+00   0.00000000000000E+00
      0.00000000000000E+00   0.00000000000000E+00   3.30718960655740E-07   0.00000000000000E+00   3.25609119591813E-09
      0.00000000000000E+00   0.00000000000000E+00  -2.61025038860632E+00  -6.45840754287301E-01  -3.25609114289363E+00
     -1.64452948121429E-07   8.33333333333333E-01   8.33333330077240E-01   0.00000000000000E+00   0.00000000000000E+00
      2.53197138973850E+00   7.24119753155353E-01   3.25609114289386E+00  -1.83743693288832E-08
      1.75000000000000E-01
      1.50000000000000E+01   1.50000000000000E+01   0.00000000000000E+00   0.00000000000000E+00   0.00000000000000E+00
      0.00000000000000E+00   0.00000000000000E+00   3.30698796397681E-07   0.00000000000000E+00   4.05868892289036E-09
      0.00000000000000E+00   0.00000000000000E+00  -3.23516564906756E+00  -8.23523305031566E-01  -4.05868895409912E+00
     -1.64475325216546E-07   8.75000000000000E-01   8.74999995941311E-01   0.00000000000000E+00   0.00000000000000E+00
      3.14971201731745E+00   9.08976936781455E-01   4.05868895409890E+00  -1.77946337871905E-08
      1.83333333333333E-01
      1.50000000000000E+01   1.50000000000000E+01   0.00000000000000E+00   0.00000000000000E+00   0.00000000000000E+00
      0.00000000000000E+00   0.00000000000000E+00   3.30676425064194E-07   0.00000000000000E+00   4.95275059878966E-09
      0.00000000000000E+00   0.00000000000000E+00  -3.92873031973200E+00  -1.02402025840722E+00  -4.95275057813922E+00
     -1.64497627617428E-07   9.16666666666667E-01   9.16666661713917E-01   0.00000000000000E+00   0.00000000000000E+00
      3.83631477984993E+00   1.11643579828896E+00   4.95275057813889E+00  -1.72748941131500E-08
      1.91666666666667E-01
      1.50000000000000E+01   1.50000000000000E+01   0.00000000000000E+00   0.00000000000000E+00   0.00000000000000E+00
      0.00000000000000E+00   0.00000000000000E+00   3.30651826543312E-07   0.00000000000000E+00   5.93925574773834E-09
      0.00000000000000E+00   0.00000000000000E+00  -4.69163087278880E+00  -1.24762484923445E+00  -5.93925572202325E+00
     -1.64519668220749E-07   9.58333333333333E-01   9.58333327394079E-01   0.00000000000000E+00   0.00000000000000E+00
      4.59242353873251E+00   1.34683218329025E+00   5.93925572202276E+00  -1.68039020980453E-08
      2.00000000000000E-01
      1.50000000000000E+01   1.50000000000000E+01   0.00000000000000E+00   0.00000000000000E+00   0.00000000000000E+00
      0.00000000000000E+00   0.00000000000000E+00   3.30624981202383E-07   0.00000000000000E+00   7.01917149481919E-09
      0.00000000000000E+00   0.00000000000000E+00  -5.52454860013768E+00  -1.49462292922135E+00  -7.01917152935902E+00
     -1.64541304946892E-07   1.00000000000000E+00   9.99999992980828E-01   0.00000000000000E+00   0.00000000000000E+00
      5.41868591223439E+00   1.60048561712530E+00   7.01917152935969E+00  -1.63732466064585E-08
      2.08333333333333E-01
      1.50000000000000E+01   1.50000000000000E+01   0.00000000000000E+00   0.00000000000000E+00   0.00000000000000E+00
      0.00000000000000E+00   0.00000000000000E+00   3.30595870318562E-07   0.00000000000000E+00   8.19343777907281E-09
      0.00000000000000E+00   0.00000000000000E+00  -6.42814597770934E+00  -1.76529180231583E+00  -8.19343778002517E+00
     -1.64562430931324E-07   1.04166666666667E+00   1.04166665847323E+00   0.00000000000000E+00   0.00000000000000E+00
      6.31573724291920E+00   1.87770053710695E+00   8.19343778002615E+00  -1.59764935865860E-08
      2.16666666666667E-01
      1.50000000000000E+01   1.50000000000000E+01   0.00000000000000E+00   0.00000000000000E+00   0.00000000000000E+00
      0.00000000000000E+00   0.00000000000000E+00   3.30564476163863E-07   0.00000000000000E+00   9.46296459815544E-09
      0.00000000000000E+00   0.00000000000000E+00  -7.40306358116802E+00  -2.05990100376155E+00  -9.46296458492957E+00
     -1.64582966607510E-07   1.08333333333333E+00   1.08333332387037E+00   0.00000000000000E+00   0.00000000000000E+00
      7.28419586802729E+00   2.17876871690212E+00   9.46296458492941E+00  -1.56086221026144E-08
      2.25000000000000E-01
      1.50000000000000E+01   1.50000000000000E+01   0.00000000000000E+00   0.00000000000000E+00   0.00000000000000E+00
      0.00000000000000E+00   0.00000000000000E+00   3.30530781873200E-07   0.00000000000000E+00   1.08286380700917E-08
      0.00000000000000E+00   0.00000000000000E+00  -8.44992368905080E+00  -2.37871440578759E+00  -1.08286380948384E+01
     -1.64602853387193E-07   1.12500000000000E+00   1.12499998917136E+00   0.00000000000000E+00   0.00000000000000E+00
      8.32466578865949E+00   2.50397260869981E+00   1.08286383973593E+01  -1.52656440638562E-08
      2.33333333333333E-01
      1.50000000000000E+01   1.50000000000000E+01   0.00000000000000E+00   0.00000000000000E+00   0.00000000000000E+00
      0.00000000000000E+00   0.00000000000000E+00   3.30494771199167E-07   0.00000000000000E+00   1.22913304443507E-08
      0.00000000000000E+00   0.00000000000000E+00  -9.56933741358040E+00  -2.72199302656296E+00  -1.22913304401434E+01
     -1.64622048654719E-07   1.16666666666667E+00   1.16666665437533E+00   0.00000000000000E+00   0.00000000000000E+00
      9.43774199093991E+00   2.85358865780710E+00   1.22913306487470E+01  -1.49443416662464E-08
      2.41666666666667E-01
      1.50000000000000E+01   1.50000000000000E+01   0.00000000000000E+00   0.00000000000000E+00   0.00000000000000E+00
      0.00000000000000E+00   0.00000000000000E+00   3.30456428222731E-07   0.00000000000000E+00   1.38519113069045E-08
      0.00000000000000E+00   0.00000000000000E+00  -1.07619132367711E+01  -3.08999807969850E+00  -1.38519113164696E+01
     -1.64640521831008E-07   1.20833333333333E+00   1.20833331948142E+00   0.00000000000000E+00   0.00000000000000E+00
      1.06240199730994E+01   3.22789149006060E+00   1.38519114631600E+01  -1.46420821734549E-08
      2.50000000000000E-01
      1.50000000000000E+01   1.50000000000000E+01   0.00000000000000E+00   0.00000000000000E+00   0.00000000000000E+00
      0.00000000000000E+00   0.00000000000000E+00   3.30415737058226E-07   0.00000000000000E+00   1.55112597037329E-08
      0.00000000000000E+00   0.00000000000000E+00  -1.20282657675634E+01  -3.48299397234521E+00  -1.55112597399086E+01
     -1.64658251303980E-07   1.25000000000000E+00   1.24999998448874E+00   0.00000000000000E+00   0.00000000000000E+00
      1.18841028764235E+01   3.62715696841162E+00   1.55112598448352E+01  -1.43566847028838E-08
      2.58333333333333E-01
      1.50000000000000E+01   1.50000000000000E+01   0.00000000000000E+00   0.00000000000000E+00   0.00000000000000E+00
      0.00000000000000E+00   0.00000000000000E+00   3.30372681588363E-07   0.00000000000000E+00   1.72702745192788E-08
      0.00000000000000E+00   0.00000000000000E+00  -1.33690236044129E+01  -3.90125096468555E+00  -1.72702745690984E+01
     -1.64675222042221E-07   1.29166666666667E+00   1.29166664939640E+00   0.00000000000000E+00   0.00000000000000E+00
      1.32186093421567E+01   4.05166530313213E+00   1.72702746452889E+01  -1.40863227357773E-08
      2.66666666666667E-01
      1.50000000000000E+01   1.50000000000000E+01   0.00000000000000E+00   0.00000000000000E+00   0.00000000000000E+00
      0.00000000000000E+00   0.00000000000000E+00   3.30327245247349E-07   0.00000000000000E+00   1.91298831098539E-08
      0.00000000000000E+00   0.00000000000000E+00  -1.47848357306230E+01  -4.34504732849418E+00  -1.91298830591172E+01
     -1.64691423748800E-07   1.33333333333333E+00   1.33333331420345E+00   0.00000000000000E+00   0.00000000000000E+00
      1.46281796458089E+01   4.50170346937584E+00   1.91298831151848E+01  -1.38294516188420E-08
      2.75000000000000E-01
      1.50000000000000E+01   1.50000000000000E+01   0.00000000000000E+00   0.00000000000000E+00   0.00000000000000E+00
      0.00000000000000E+00   0.00000000000000E+00   3.30279410854808E-07   0.00000000000000E+00   2.10910473653910E-08
      0.00000000000000E+00   0.00000000000000E+00  -1.62763763724424E+01  -4.81467097987904E+00  -2.10910473523215E+01
     -1.64706849446581E-07   1.37500000000000E+00   1.37499997890896E+00   0.00000000000000E+00   0.00000000000000E+00
      1.61134803497961E+01   4.97756704428452E+00   2.10910473940806E+01  -1.35847537733950E-08
      2.83333333333333E-01
      1.50000000000000E+01   1.50000000000000E+01   0.00000000000000E+00   0.00000000000000E+00   0.00000000000000E+00
      0.00000000000000E+00   0.00000000000000E+00   3.30229160451310E-07   0.00000000000000E+00   2.31547708733335E-08
      0.00000000000000E+00   0.00000000000000E+00  -1.78443497991628E+01  -5.31042100601834E+00  -2.31547708051811E+01
     -1.64721494430438E-07   1.41666666666667E+00   1.41666664351190E+00   0.00000000000000E+00   0.00000000000000E+00
      1.76752089214078E+01   5.47956191521230E+00   2.31547708366201E+01  -1.33510963917094E-08
      2.91666666666667E-01
      1.50000000000000E+01   1.50000000000000E+01   0.00000000000000E+00   0.00000000000000E+00   0.00000000000000E+00
      0.00000000000000E+00   0.00000000000000E+00   3.30176475222635E-07   0.00000000000000E+00   2.53221007555303E-08
      0.00000000000000E+00   0.00000000000000E+00  -1.94894923812529E+01  -5.83260836041961E+00  -2.53221007416725E+01
     -1.64735355452494E-07   1.45833333333333E+00   1.45833330801123E+00   0.00000000000000E+00   0.00000000000000E+00
      1.93140956584150E+01   6.00800510715959E+00   2.53221007655745E+01  -1.31274988447870E-08
      3.00000000000000E-01
      1.50000000000000E+01   1.50000000000000E+01   0.00000000000000E+00   0.00000000000000E+00   0.00000000000000E+00
      0.00000000000000E+00   0.00000000000000E+00   3.30121335452324E-07   0.00000000000000E+00   2.75941300561989E-08
      0.00000000000000E+00   0.00000000000000E+00  -2.12125737586933E+01  -6.38155623634870E+00  -2.75941299950419E+01
     -1.64748430124112E-07   1.50000000000000E+00   1.49999997240587E+00   0.00000000000000E+00   0.00000000000000E+00
      2.10309047433782E+01   6.56322526999704E+00   2.75941300133752E+01  -1.29131069428737E-08
      3.08333333333333E-01
      1.50000000000000E+01   1.50000000000000E+01   0.00000000000000E+00   0.00000000000000E+00   0.00000000000000E+00
      0.00000000000000E+00   0.00000000000000E+00   3.30063720510370E-07   0.00000000000000E+00   2.99719969153229E-08
      0.00000000000000E+00   0.00000000000000E+00  -2.30143968683327E+01  -6.95760005533309E+00  -2.99719969236658E+01
     -1.64760716478824E-07   1.54166666666667E+00   1.54166663669467E+00   0.00000000000000E+00   0.00000000000000E+00
      2.28264341752270E+01   7.14556276261606E+00   2.99719969378431E+01  -1.27071724350375E-08
      3.16666666666667E-01
      1.50000000000000E+01   1.50000000000000E+01   0.00000000000000E+00   0.00000000000000E+00   0.00000000000000E+00
      0.00000000000000E+00   0.00000000000000E+00   3.30003608875500E-07   0.00000000000000E+00   3.24568840175832E-08
      0.00000000000000E+00   0.00000000000000E+00  -2.48957968969238E+01  -7.56108710874089E+00  -3.24568840056647E+01
     -1.64772212658662E-07   1.58333333333333E+00   1.58333330087645E+00   0.00000000000000E+00   0.00000000000000E+00
      2.47015146443620E+01   7.75536937234420E+00   3.24568840167062E+01  -1.25090365193811E-08
      3.25000000000000E-01
      1.50000000000000E+01   1.50000000000000E+01   0.00000000000000E+00   0.00000000000000E+00   0.00000000000000E+00
      0.00000000000000E+00   0.00000000000000E+00   3.29940978186481E-07   0.00000000000000E+00   3.50500151941030E-08
      0.00000000000000E+00   0.00000000000000E+00  -2.68576392915689E+01  -8.19237589124576E+00  -3.50500151828147E+01
     -1.64782916695583E-07   1.62500000000000E+00   1.62499996494999E+00   0.00000000000000E+00   0.00000000000000E+00
      2.66570074794468E+01   8.39300771202671E+00   3.50500151914735E+01  -1.23181164481919E-08
      3.33333333333334E-01
      1.50000000000000E+01   1.50000000000000E+01   0.00000000000000E+00   0.00000000000000E+00   0.00000000000000E+00
      0.00000000000000E+00   0.00000000000000E+00   3.29875805318451E-07   0.00000000000000E+00   3.77526521160376E-08
      0.00000000000000E+00   0.00000000000000E+00  -2.89008169399891E+01  -8.85183516244427E+00  -3.77526521024334E+01
     -1.64792826365526E-07   1.66666666666667E+00   1.66666662891401E+00   0.00000000000000E+00   0.00000000000000E+00
      2.86938017761211E+01   9.05885033314227E+00   3.77526521092634E+01  -1.21338945504827E-08
      3.41666666666667E-01
      1.50000000000000E+01   1.50000000000000E+01   0.00000000000000E+00   0.00000000000000E+00   0.00000000000000E+00
      0.00000000000000E+00   0.00000000000000E+00   3.29808066483451E-07   0.00000000000000E+00   4.05660893349577E-08
      0.00000000000000E+00   0.00000000000000E+00  -3.10262465342827E+01  -9.53984275225319E+00  -4.05660892865359E+01
     -1.64801939096389E-07   1.70833333333333E+00   1.70833329276725E+00   0.00000000000000E+00   0.00000000000000E+00
      3.08128107221250E+01   9.75327856982918E+00   4.05660892919541E+01  -1.19559091784967E-08
      3.50000000000000E-01
      1.50000000000000E+01   1.50000000000000E+01   0.00000000000000E+00   0.00000000000000E+00   0.00000000000000E+00
      0.00000000000000E+00   0.00000000000000E+00   3.29737737349432E-07   0.00000000000000E+00   4.34916484047870E-08
      0.00000000000000E+00   0.00000000000000E+00  -3.32348642871998E+01  -1.02567841480351E+01  -4.34916484352349E+01
     -1.64810251917621E-07   1.75000000000000E+00   1.74999995650835E+00   0.00000000000000E+00   0.00000000000000E+00
      3.30149672831074E+01   1.04766811564465E+01   4.34916484395538E+01  -1.17837471722647E-08
      3.58333333333334E-01
      1.50000000000000E+01   1.50000000000000E+01   0.00000000000000E+00   0.00000000000000E+00   0.00000000000000E+00
      0.00000000000000E+00   0.00000000000000E+00   3.29664793174518E-07   0.00000000000000E+00   4.65306719118942E-08
      0.00000000000000E+00   0.00000000000000E+00  -3.55276210910209E+01  -1.10030508937868E+01  -4.65306719848077E+01
     -1.64817761440691E-07   1.79166666666667E+00   1.79166662013600E+00   0.00000000000000E+00   0.00000000000000E+00
      3.53012193384747E+01   1.12294526497915E+01   4.65306719882662E+01  -1.16170375445232E-08
      3.66666666666667E-01
      1.50000000000000E+01   1.50000000000000E+01   0.00000000000000E+00   0.00000000000000E+00   0.00000000000000E+00
      0.00000000000000E+00   0.00000000000000E+00   3.29589208956912E-07   0.00000000000000E+00   4.96845159438239E-08
      0.00000000000000E+00   0.00000000000000E+00  -3.79054770976444E+01  -1.17790387998328E+01  -4.96845158974772E+01
     -1.64824463861303E-07   1.83333333333333E+00   1.83333328364882E+00   0.00000000000000E+00   0.00000000000000E+00
      3.76725242463511E+01   1.20119916539063E+01   4.96845159002575E+01  -1.14554461691120E-08
      3.75000000000000E-01
      1.50000000000000E+01   1.50000000000000E+01   0.00000000000000E+00   0.00000000000000E+00   0.00000000000000E+00
      0.00000000000000E+00   0.00000000000000E+00   3.29510959595392E-07   0.00000000000000E+00   5.29545418232711E-08
      0.00000000000000E+00   0.00000000000000E+00  -4.03693958709272E+01  -1.25851460019957E+01  -5.29545418729229E+01
     -1.64830354978092E-07   1.87500000000000E+00   1.87499994704546E+00   0.00000000000000E+00   0.00000000000000E+00
      4.01298429859138E+01   1.28246988892530E+01   5.29545418751668E+01  -1.12986712761631E-08
      3.83333333333334E-01
      1.50000000000000E+01   1.50000000000000E+01   0.00000000000000E+00   0.00000000000000E+00   0.00000000000000E+00
      0.00000000000000E+00   0.00000000000000E+00   3.29430020058585E-07   0.00000000000000E+00   5.63421090360361E-08
      0.00000000000000E+00   0.00000000000000E+00  -4.29203381616258E+01  -1.34217708832743E+01  -5.63421090449000E+01
     -1.64835430223049E-07   1.91666666666667E+00   1.91666661032456E+00   0.00000000000000E+00   0.00000000000000E+00
      4.26741339263344E+01   1.36679751203819E+01   5.63421090467163E+01  -1.11464396119313E-08
      3.91666666666667E-01
      1.50000000000000E+01   1.50000000000000E+01   0.00000000000000E+00   0.00000000000000E+00   0.00000000000000E+00
      0.00000000000000E+00   0.00000000000000E+00   3.29346365560173E-07   0.00000000000000E+00   5.98485653117924E-08
      0.00000000000000E+00   0.00000000000000E+00  -4.55592553896582E+01  -1.42893098853245E+01  -5.98485652749828E+01
     -1.64839684700193E-07   1.95833333333334E+00   1.95833327348476E+00   0.00000000000000E+00   0.00000000000000E+00
      4.53063463064568E+01   1.45422189700017E+01   5.98485652764584E+01  -1.09985031464048E-08
      4.00000000000000E-01
      1.50000000000000E+01   1.50000000000000E+01   0.00000000000000E+00   0.00000000000000E+00   0.00000000000000E+00