DF-ISE text

Info {
  version   = 1.0
  type      = xyplot
  datasets  = [
    "time"
    "gate OuterVoltage" "gate InnerVoltage" "gate QuasiFermiPotential" "gate DisplacementCurrent" "gate eCurrent"
    "gate hCurrent" "gate TotalCurrent" "gate Charge" "emitter OuterVoltage" "emitter InnerVoltage"
    "emitter QuasiFermiPotential" "emitter DisplacementCurrent" "emitter eCurrent" "emitter hCurrent" "emitter TotalCurrent"
    "emitter Charge" "collector OuterVoltage" "collector InnerVoltage" "collector QuasiFermiPotential" "collector DisplacementCurrent"
    "collector eCurrent" "collector hCurrent" "collector TotalCurrent" "collector Charge" ]
  functions = [
    Time
    OuterVoltage InnerVoltage QuasiFermiPotential DisplacementCurrent eCurrent
    hCurrent TotalCurrent Charge OuterVoltage InnerVoltage
    QuasiFermiPotential DisplacementCurrent eCurrent hCurrent TotalCurrent
    Charge OuterVoltage InnerVoltage QuasiFermiPotential DisplacementCurrent
    eCurrent hCurrent TotalCurrent Charge ]
}

Data {
      0.00000000000000E+00
      1.50000000000000E+01   1.50000000000000E+01   0.00000000000000E+00   0.00000000000000E+00   0.00000000000000E+00
      0.00000000000000E+00   0.00000000000000E+00   3.30813446864379E-07   0.00000000000000E+00   0.00000000000000E+00
      0.00000000000000E+00   0.00000000000000E+00  -2.24170727281931E-14   3.33760535875375E-21  -2.24170693905878E-14
     -1.76415686799771E-07   0.00000000000000E+00   0.00000000000000E+00   0.00000000000000E+00   0.00000000000000E+00
      5.21167038056145E-23  -1.19019495393501E-24   5.09265088516795E-23  -8.35183064430004E-08
      8.33333333333333E-03
      1.50000000000000E+01   1.50000000000000E+01   0.00000000000000E+00   0.00000000000000E+00   0.00000000000000E+00
      0.00000000000000E+00   0.00000000000000E+00   3.30813446864343E-07   0.00000000000000E+00   0.00000000000000E+00
      0.00000000000000E+00   0.00000000000000E+00  -1.05823505826004E-09  -2.60829597153728E-11  -1.08431801797541E-09
     -1.76415686799852E-07   4.16666666666667E-02   4.16666666666669E-02   0.00000000000000E+00   0.00000000000000E+00
      8.08985132072675E-10   2.74435342137530E-10   1.08342047421021E-09  -7.90233634194904E-08
      1.66666666666667E-02
      1.50000000000000E+01   1.50000000000000E+01   0.00000000000000E+00   0.00000000000000E+00   0.00000000000000E+00
      0.00000000000000E+00   0.00000000000000E+00   3.30813446864160E-07   0.00000000000000E+00   0.00000000000000E+00
      0.00000000000000E+00   0.00000000000000E+00  -6.30067648881937E-09  -1.75546433220362E-10  -6.47622292203974E-09
     -1.76415686800250E-07   8.33333333333333E-02   8.33333333333338E-02   0.00000000000000E+00   0.00000000000000E+00
      4.84117530441061E-09   1.63432584865334E-09   6.47550115306395E-09  -7.45250630986939E-08
      2.50000000000000E-02
      1.50000000000000E+01   1.50000000000000E+01   0.00000000000000E+00   0.00000000000000E+00   0.00000000000000E+00
      0.00000000000000E+00   0.00000000000000E+00   3.30813446863268E-07   0.00000000000000E+00   0.00000000000000E+00
      0.00000000000000E+00   0.00000000000000E+00  -3.20768851937927E-08  -1.21787283167364E-09  -3.32947580254663E-08
     -1.76415686802096E-07   1.25000000000000E-01   1.25000000000000E-01   0.00000000000000E+00   0.00000000000000E+00
      2.49794429279399E-08   8.31560287205190E-09   3.32950457999918E-08  -7.00235840035257E-08
      3.33333333333333E-02
      1.50000000000000E+01   1.50000000000000E+01   0.00000000000000E+00   0.00000000000000E+00   0.00000000000000E+00
      0.00000000000000E+00   0.00000000000000E+00   3.30813446858940E-07   0.00000000000000E+00   1.83689474415054E-16
      0.00000000000000E+00   0.00000000000000E+00  -1.57415744100128E-07  -8.82078152225979E-09  -1.66236525622388E-07
     -1.76415686810442E-07   1.66666666666667E-01   1.66666666666668E-01   0.00000000000000E+00   0.00000000000000E+00
      1.25574873834410E-07   4.06613732924645E-08   1.66236247126874E-07  -6.55190913977329E-08
      4.16666666666667E-02
      1.50000000000000E+01   1.50000000000000E+01   0.00000000000000E+00   0.00000000000000E+00   0.00000000000000E+00
      0.00000000000000E+00   0.00000000000000E+00   3.30813446838129E-07   0.00000000000000E+00   8.26602634867741E-16
      0.00000000000000E+00   0.00000000000000E+00  -7.60682091973309E-07  -6.16331763629651E-08  -8.22315268336274E-07
     -1.76415686848687E-07   2.08333333333333E-01   2.08333333333332E-01   0.00000000000000E+00   0.00000000000000E+00
      6.28054644091852E-07   1.94260584040574E-07   8.22315228132426E-07  -6.10117427170867E-08
      5.00000000000000E-02
      1.50000000000000E+01   1.50000000000000E+01   0.00000000000000E+00   0.00000000000000E+00   0.00000000000000E+00
      0.00000000000000E+00   0.00000000000000E+00   3.30813446737835E-07   0.00000000000000E+00   4.04116843713118E-15
      0.00000000000000E+00   0.00000000000000E+00  -3.66966927816557E-06  -3.90654769525122E-07  -4.06032404769069E-06
     -1.76415687027302E-07   2.50000000000000E-01   2.49999999999996E-01   0.00000000000000E+00   0.00000000000000E+00
      3.13773664969079E-06   9.22588163053667E-07   4.06032481274446E-06  -5.65017077613243E-08
      5.83333333333333E-02
      1.50000000000000E+01   1.50000000000000E+01   0.00000000000000E+00   0.00000000000000E+00   0.00000000000000E+00
      0.00000000000000E+00   0.00000000000000E+00   3.30813446248867E-07   0.00000000000000E+00   2.01139974484484E-14
      0.00000000000000E+00   0.00000000000000E+00  -1.78573733877313E-05  -2.24144870237924E-06  -2.00988220901105E-05
     -1.76415687879964E-07   2.91666666666667E-01   2.91666666666647E-01   0.00000000000000E+00   0.00000000000000E+00
      1.56702233783424E-05   4.42859876422626E-06   2.00988221425687E-05  -5.19892621309903E-08
      6.66666666666667E-02
      1.50000000000000E+01   1.50000000000000E+01   0.00000000000000E+00   0.00000000000000E+00   0.00000000000000E+00
      0.00000000000000E+00   0.00000000000000E+00   3.30813443843164E-07   0.00000000000000E+00   9.97433846073740E-14
      0.00000000000000E+00   0.00000000000000E+00  -8.76836593032502E-05  -1.20656376627454E-05  -9.97492969659956E-05
     -1.76415692012707E-07   3.33333333333333E-01   3.33333333333233E-01   0.00000000000000E+00   0.00000000000000E+00
      7.82197928902448E-05   2.15295044640493E-05   9.97492973542942E-05  -4.74752392577695E-08
      7.50000000000000E-02
      1.50000000000000E+01   1.50000000000000E+01   0.00000000000000E+00   0.00000000000000E+00   0.00000000000000E+00
      0.00000000000000E+00   0.00000000000000E+00   3.30813431964751E-07   0.00000000000000E+00   4.95226823022984E-13
      0.00000000000000E+00   0.00000000000000E+00  -4.32570517498012E-04  -6.26482315672257E-05  -4.95218749065238E-04
     -1.76415712176352E-07   3.75000000000000E-01   3.74999999999505E-01   0.00000000000000E+00   0.00000000000000E+00
      3.89758043855775E-04   1.05460706236250E-04   4.95218750092026E-04  -4.29632266094246E-08
      8.33333333333333E-02
      1.50000000000000E+01   1.50000000000000E+01   0.00000000000000E+00   0.00000000000000E+00   0.00000000000000E+00
      0.00000000000000E+00   0.00000000000000E+00   3.30813373685902E-07   0.00000000000000E+00   2.44270263077138E-12
      0.00000000000000E+00   0.00000000000000E+00  -2.12526958671921E-03  -3.17387666964235E-04  -2.44265725368344E-03
     -1.76415810001403E-07   4.16666666666667E-01   4.16666666664226E-01   0.00000000000000E+00   0.00000000000000E+00
      1.92709686264853E-03   5.15560391334509E-04   2.44265725398304E-03  -3.84700246097541E-08
      9.16666666666667E-02
      1.50000000000000E+01   1.50000000000000E+01   0.00000000000000E+00   0.00000000000000E+00   0.00000000000000E+00
      0.00000000000000E+00   0.00000000000000E+00   3.30813099168487E-07   0.00000000000000E+00   1.16515152068841E-11
      0.00000000000000E+00   0.00000000000000E+00  -1.01022100727089E-02  -1.54931502987853E-03  -1.16515251025874E-02
     -1.76416264128701E-07   4.58333333333333E-01   4.58333333321683E-01   0.00000000000000E+00   0.00000000000000E+00
      9.20559594076967E-03   2.44592916150090E-03   1.16515251022706E-02  -3.40706105691602E-08
      1.00000000000000E-01
      1.50000000000000E+01   1.50000000000000E+01   0.00000000000000E+00   0.00000000000000E+00   0.00000000000000E+00
      0.00000000000000E+00   0.00000000000000E+00   3.30811992295085E-07   0.00000000000000E+00   4.90974411690276E-11
      0.00000000000000E+00   0.00000000000000E+00  -4.22934284726000E-02  -6.80401630368816E-03  -4.90974447762882E-02
     -1.76418040508656E-07   5.00000000000000E-01   4.99999999950904E-01   0.00000000000000E+00   0.00000000000000E+00
      3.87873956798282E-02   1.03100490963042E-02   4.90974447761324E-02  -3.00218617373050E-08
      1.08333333333333E-01
      1.50000000000000E+01   1.50000000000000E+01   0.00000000000000E+00   0.00000000000000E+00   0.00000000000000E+00
      0.00000000000000E+00   0.00000000000000E+00   3.30808843461816E-07   0.00000000000000E+00   1.57677391632612E-10
      0.00000000000000E+00   0.00000000000000E+00  -1.34037259459300E-01  -2.36401381734947E-02  -1.57677397632795E-01
     -1.76422750950081E-07   5.41666666666667E-01   5.41666666508992E-01   0.00000000000000E+00   0.00000000000000E+00
      1.24209788210988E-01   3.34676094223020E-02   1.57677397633290E-01  -2.67469579255160E-08
      1.16666666666667E-01
      1.50000000000000E+01   1.50000000000000E+01   0.00000000000000E+00   0.00000000000000E+00   0.00000000000000E+00
      0.00000000000000E+00   0.00000000000000E+00   3.30802780345957E-07   0.00000000000000E+00   3.72679033080142E-10
      0.00000000000000E+00   0.00000000000000E+00  -3.11210409664896E-01  -6.14686244986675E-02  -3.72679034163563E-01
     -1.76430770412457E-07   5.83333333333333E-01   5.83333332960654E-01   0.00000000000000E+00   0.00000000000000E+00
      2.92011393934403E-01   8.06676402289540E-02   3.72679034163357E-01  -2.43502020426476E-08
      1.25000000000000E-01
      1.50000000000000E+01   1.50000000000000E+01   0.00000000000000E+00   0.00000000000000E+00   0.00000000000000E+00
      0.00000000000000E+00   0.00000000000000E+00   3.30793662877268E-07   0.00000000000000E+00   7.04926910704684E-10
      0.00000000000000E+00   0.00000000000000E+00  -5.78538992791185E-01  -1.26387943362630E-01  -7.04926936153815E-01
     -1.76441082271036E-07   6.25000000000000E-01   6.24999999295075E-01   0.00000000000000E+00   0.00000000000000E+00
      5.49007406502089E-01   1.55919529651395E-01   7.04926936153484E-01  -2.25924266859056E-08
      1.33333333333333E-01
      1.50000000000000E+01   1.50000000000000E+01   0.00000000000000E+00   0.00000000000000E+00   0.00000000000000E+00
      0.00000000000000E+00   0.00000000000000E+00   3.30781572293267E-07   0.00000000000000E+00   1.15497328691107E-09
      0.00000000000000E+00   0.00000000000000E+00  -9.34140951082555E-01  -2.20832361495953E-01  -1.15497331257851E+00
     -1.76452697446126E-07   6.66666666666667E-01   6.66666665511697E-01   0.00000000000000E+00   0.00000000000000E+00
      8.94489945397746E-01   2.60483369981321E-01   1.15497331537907E+00  -2.12445910270891E-08
      1.41666666666667E-01
      1.50000000000000E+01   1.50000000000000E+01   0.00000000000000E+00   0.00000000000000E+00   0.00000000000000E+00
      0.00000000000000E+00   0.00000000000000E+00   3.30766602886396E-07   0.00000000000000E+00   1.72078876038595E-09
      0.00000000000000E+00   0.00000000000000E+00  -1.37553733367102E+00  -3.45251508269381E-01  -1.72078884194040E+00
     -1.76464995037506E-07   7.08333333333333E-01   7.08333331612549E-01   0.00000000000000E+00   0.00000000000000E+00
      1.32634131393169E+00   3.94447528213168E-01   1.72078884214486E+00  -2.01655712544509E-08
      1.50000000000000E-01
      1.50000000000000E+01   1.50000000000000E+01   0.00000000000000E+00   0.00000000000000E+00   0.00000000000000E+00
      0.00000000000000E+00   0.00000000000000E+00   3.30748844325312E-07   0.00000000000000E+00   2.39946782286778E-09
      0.00000000000000E+00   0.00000000000000E+00  -1.90023891430591E+00  -4.99228881744942E-01  -2.39946779605086E+00
     -1.76477599089328E-07   7.50000000000000E-01   7.49999997600529E-01   0.00000000000000E+00   0.00000000000000E+00
      1.84211019902846E+00   5.57357597040891E-01   2.39946779606935E+00  -1.92720891133225E-08
      1.58333333333333E-01
      1.50000000000000E+01   1.50000000000000E+01   0.00000000000000E+00   0.00000000000000E+00   0.00000000000000E+00
      0.00000000000000E+00   0.00000000000000E+00   3.30728383661750E-07   0.00000000000000E+00   3.18776128308837E-09
      0.00000000000000E+00   0.00000000000000E+00  -2.50575535040977E+00  -6.82005899136341E-01  -3.18776124954611E+00
     -1.76490268210469E-07   7.91666666666667E-01   7.91666663478906E-01   0.00000000000000E+00   0.00000000000000E+00
      2.43924613606937E+00   7.48515113478806E-01   3.18776124954818E+00  -1.85129198309009E-08
      1.66666666666667E-01
      1.50000000000000E+01   1.50000000000000E+01   0.00000000000000E+00   0.00000000000000E+00   0.00000000000000E+00
      0.00000000000000E+00   0.00000000000000E+00   3.30705304492748E-07   0.00000000000000E+00   4.08238146683462E-09
      0.00000000000000E+00   0.00000000000000E+00  -3.18966146539746E+00  -8.92719982920288E-01  -4.08238144831774E+00
     -1.76502836596275E-07   8.33333333333333E-01   8.33333329250956E-01   0.00000000000000E+00   0.00000000000000E+00
      3.11524350114216E+00   9.67137947176323E-01   4.08238144831848E+00  -1.78548482792387E-08
      1.75000000000000E-01
      1.50000000000000E+01   1.50000000000000E+01   0.00000000000000E+00   0.00000000000000E+00   0.00000000000000E+00
      0.00000000000000E+00   0.00000000000000E+00   3.30679685054870E-07   0.00000000000000E+00   5.08019160079670E-09
      0.00000000000000E+00   0.00000000000000E+00  -3.94967565651366E+00  -1.13051589738112E+00  -5.08019155389478E+00
     -1.76515184546088E-07   8.75000000000000E-01   8.74999994919807E-01   0.00000000000000E+00   0.00000000000000E+00
      3.86774397060772E+00   1.21244758328727E+00   5.08019155389499E+00  -1.72752878012186E-08
      1.83333333333333E-01
      1.50000000000000E+01   1.50000000000000E+01   0.00000000000000E+00   0.00000000000000E+00   0.00000000000000E+00
      0.00000000000000E+00   0.00000000000000E+00   3.30651596877003E-07   0.00000000000000E+00   6.17830748469208E-09
      0.00000000000000E+00   0.00000000000000E+00  -4.78371092665404E+00  -1.39459662339470E+00  -6.17830755004874E+00
     -1.76527223161915E-07   9.16666666666667E-01   9.16666660488361E-01   0.00000000000000E+00   0.00000000000000E+00
      4.69459386600793E+00   1.48371368404087E+00   6.17830755004880E+00  -1.67582568065038E-08
      1.91666666666667E-01
      1.50000000000000E+01   1.50000000000000E+01   0.00000000000000E+00   0.00000000000000E+00   0.00000000000000E+00
      0.00000000000000E+00   0.00000000000000E+00   3.30621104296798E-07   0.00000000000000E+00   7.37413799479465E-09
      0.00000000000000E+00   0.00000000000000E+00  -5.68989463058485E+00  -1.68424336432538E+00  -7.37413799491024E+00
     -1.76538885667963E-07   9.58333333333333E-01   9.58333325959191E-01   0.00000000000000E+00   0.00000000000000E+00
      5.59386453014870E+00   1.78027346476203E+00   7.37413799491073E+00  -1.62920725157656E-08
      2.00000000000000E-01
      1.50000000000000E+01   1.50000000000000E+01   0.00000000000000E+00   0.00000000000000E+00   0.00000000000000E+00
      0.00000000000000E+00   0.00000000000000E+00   3.30588264633136E-07   0.00000000000000E+00   8.66538535946896E-09
      0.00000000000000E+00   0.00000000000000E+00  -6.66656577396181E+00  -1.99881956142206E+00  -8.66538533538387E+00
     -1.76550121930096E-07   1.00000000000000E+00   9.99999991334615E-01   0.00000000000000E+00   0.00000000000000E+00
      6.56384855138387E+00   2.10153678399955E+00   8.66538533538342E+00  -1.58679620580791E-08
      2.08333333333333E-01
      1.50000000000000E+01   1.50000000000000E+01   0.00000000000000E+00   0.00000000000000E+00   0.00000000000000E+00
      0.00000000000000E+00   0.00000000000000E+00   3.30553128732204E-07   0.00000000000000E+00   1.00500266065333E-08
      0.00000000000000E+00   0.00000000000000E+00  -7.71225963745113E+00  -2.33776698073907E+00  -1.00500266181902E+01
     -1.76560894656069E-07   1.04166666666667E+00   1.04166665661664E+00   0.00000000000000E+00   0.00000000000000E+00
      7.60304349618587E+00   2.44698387514468E+00   1.00500273713306E+01  -1.54791881619289E-08
      2.16666666666667E-01
      1.50000000000000E+01   1.50000000000000E+01   0.00000000000000E+00   0.00000000000000E+00   0.00000000000000E+00
      0.00000000000000E+00   0.00000000000000E+00   3.30515741668350E-07   0.00000000000000E+00   1.15262853669253E-08
      0.00000000000000E+00   0.00000000000000E+00  -8.82568696386881E+00  -2.70059834846854E+00  -1.15262853123373E+01
     -1.76571176581616E-07   1.08333333333333E+00   1.08333332180704E+00   0.00000000000000E+00   0.00000000000000E+00
      8.71012719942811E+00   2.81615857414230E+00   1.15262857735704E+01  -1.51204773409689E-08
      2.25000000000000E-01
      1.50000000000000E+01   1.50000000000000E+01   0.00000000000000E+00   0.00000000000000E+00   0.00000000000000E+00
      0.00000000000000E+00   0.00000000000000E+00   3.30476143461000E-07   0.00000000000000E+00   1.30926011985598E-08
      0.00000000000000E+00   0.00000000000000E+00  -1.00057122352101E+01  -3.08688897971265E+00  -1.30926012149228E+01
     -1.76580948302593E-07   1.12500000000000E+00   1.12499998690741E+00   0.00000000000000E+00   0.00000000000000E+00
      9.88393895945143E+00   3.20866254676542E+00   1.30926015062169E+01  -1.47876333828310E-08
      2.33333333333333E-01
      1.50000000000000E+01   1.50000000000000E+01   0.00000000000000E+00   0.00000000000000E+00   0.00000000000000E+00
      0.00000000000000E+00   0.00000000000000E+00   3.30434369706851E-07   0.00000000000000E+00   1.47476031350445E-08
      0.00000000000000E+00   0.00000000000000E+00  -1.12513342670839E+01  -3.49626891112459E+00  -1.47476031782085E+01
     -1.76590196577599E-07   1.16666666666667E+00   1.16666665191906E+00   0.00000000000000E+00   0.00000000000000E+00
      1.11234559334355E+01   3.62414743381513E+00   1.47476033672506E+01  -1.44772686491388E-08
      2.41666666666667E-01
      1.50000000000000E+01   1.50000000000000E+01   0.00000000000000E+00   0.00000000000000E+00   0.00000000000000E+00
      0.00000000000000E+00   0.00000000000000E+00   3.30390452108347E-07   0.00000000000000E+00   1.64900858978931E-08
      0.00000000000000E+00   0.00000000000000E+00  -1.25616698098419E+01  -3.92841603191436E+00  -1.64900858417563E+01
     -1.76598912975453E-07   1.20833333333333E+00   1.20833331684324E+00   0.00000000000000E+00   0.00000000000000E+00
      1.24277768138765E+01   4.06230915355819E+00   1.64900859674347E+01  -1.41866128089288E-08
      2.50000000000000E-01
      1.50000000000000E+01   1.50000000000000E+01   0.00000000000000E+00   0.00000000000000E+00   0.00000000000000E+00
      0.00000000000000E+00   0.00000000000000E+00   3.30344418891383E-07   0.00000000000000E+00   1.83189908846645E-08
      0.00000000000000E+00   0.00000000000000E+00  -1.39359404407268E+01  -4.38305042779076E+00  -1.83189908685175E+01
     -1.76607092790412E-07   1.25000000000000E+00   1.24999998168100E+00   0.00000000000000E+00   0.00000000000000E+00
      1.37961080094792E+01   4.52288294439976E+00   1.83189909538789E+01  -1.39133739265114E-08
      2.58333333333333E-01
      1.50000000000000E+01   1.50000000000000E+01   0.00000000000000E+00   0.00000000000000E+00   0.00000000000000E+00
      0.00000000000000E+00   0.00000000000000E+00   3.30296295118613E-07   0.00000000000000E+00   2.02333924840971E-08
      0.00000000000000E+00   0.00000000000000E+00  -1.53734625960895E+01  -4.85992993589415E+00  -2.02333925319837E+01
     -1.76614734169916E-07   1.29166666666667E+00   1.29166664643328E+00   0.00000000000000E+00   0.00000000000000E+00
      1.52277531062266E+01   5.00563948484805E+00   2.02333925910746E+01  -1.36556357651252E-08
      2.66666666666667E-01
      1.50000000000000E+01   1.50000000000000E+01   0.00000000000000E+00   0.00000000000000E+00   0.00000000000000E+00
      0.00000000000000E+00   0.00000000000000E+00   3.30246102917307E-07   0.00000000000000E+00   2.22324868710509E-08
      0.00000000000000E+00   0.00000000000000E+00  -1.68736401985025E+01  -5.35884674965912E+00  -2.22324869481616E+01
     -1.76621837411384E-07   1.33333333333333E+00   1.33333331110085E+00   0.00000000000000E+00   0.00000000000000E+00
      1.67221050393043E+01   5.51038195046010E+00   2.22324869897644E+01  -1.34117807106725E-08
      2.75000000000000E-01
      1.50000000000000E+01   1.50000000000000E+01   0.00000000000000E+00   0.00000000000000E+00   0.00000000000000E+00
      0.00000000000000E+00   0.00000000000000E+00   3.30193861641897E-07   0.00000000000000E+00   2.43155841997046E-08
      0.00000000000000E+00   0.00000000000000E+00  -1.84359592865066E+01  -5.87962487106148E+00  -2.43155841575680E+01
     -1.76628404394936E-07   1.37500000000000E+00   1.37499997568441E+00   0.00000000000000E+00   0.00000000000000E+00
      1.82786403622633E+01   6.03694382503852E+00   2.43155841873018E+01  -1.31804311491205E-08
      2.83333333333333E-01
      1.50000000000000E+01   1.50000000000000E+01   0.00000000000000E+00   0.00000000000000E+00   0.00000000000000E+00
      0.00000000000000E+00   0.00000000000000E+00   3.30139587989322E-07   0.00000000000000E+00   2.64821023581140E-08
      0.00000000000000E+00   0.00000000000000E+00  -2.00599841069341E+01  -6.42211821242065E+00  -2.64821023193548E+01
     -1.76634438126346E-07   1.41666666666667E+00   1.41666664018456E+00   0.00000000000000E+00   0.00000000000000E+00
      1.98969150550342E+01   6.58518728585843E+00   2.64821023408927E+01  -1.29604043394070E-08
      2.91666666666667E-01
      1.50000000000000E+01   1.50000000000000E+01   0.00000000000000E+00   0.00000000000000E+00   0.00000000000000E+00
      0.00000000000000E+00   0.00000000000000E+00   3.30083296083528E-07   0.00000000000000E+00   2.87315632944218E-08
      0.00000000000000E+00   0.00000000000000E+00  -2.17453541786689E+01  -6.98620916074522E+00  -2.87315633394141E+01
     -1.76639942369232E-07   1.45833333333333E+00   1.45833330460177E+00   0.00000000000000E+00   0.00000000000000E+00
      2.15765613643376E+01   7.15500199086592E+00   2.87315633552035E+01  -1.27506772992154E-08
      3.00000000000000E-01
      1.50000000000000E+01   1.50000000000000E+01   0.00000000000000E+00   0.00000000000000E+00   0.00000000000000E+00
      0.00000000000000E+00   0.00000000000000E+00   3.30024997540381E-07   0.00000000000000E+00   3.10635894349134E-08
      0.00000000000000E+00   0.00000000000000E+00  -2.34917819850961E+01  -7.57180746432568E+00  -3.10635894494218E+01
     -1.76644921350172E-07   1.50000000000000E+00   1.49999996893641E+00   0.00000000000000E+00   0.00000000000000E+00
      2.33172853205744E+01   7.74630414054867E+00   3.10635894611231E+01  -1.25503591982398E-08
      3.08333333333333E-01
      1.50000000000000E+01   1.50000000000000E+01   0.00000000000000E+00   0.00000000000000E+00   0.00000000000000E+00
      0.00000000000000E+00   0.00000000000000E+00   3.29964701522181E-07   0.00000000000000E+00   3.34779003776060E-08
      0.00000000000000E+00   0.00000000000000E+00  -2.52990510136853E+01  -8.17884932527201E+00  -3.34779003389573E+01
     -1.76649379522921E-07   1.54166666666667E+00   1.54166663318876E+00   0.00000000000000E+00   0.00000000000000E+00
      2.51188646393959E+01   8.35903570831614E+00   3.34779003477120E+01  -1.23586694475538E-08
      3.16666666666667E-01
      1.50000000000000E+01   1.50000000000000E+01   0.00000000000000E+00   0.00000000000000E+00   0.00000000000000E+00
      0.00000000000000E+00   0.00000000000000E+00   3.29902414775460E-07   0.00000000000000E+00   3.59743110553542E-08
      0.00000000000000E+00   0.00000000000000E+00  -2.71670143265945E+01  -8.80729673044218E+00  -3.59743110570367E+01
     -1.76653321383608E-07   1.58333333333333E+00   1.58333329735903E+00   0.00000000000000E+00   0.00000000000000E+00
      2.69811471803471E+01   8.99316388329892E+00   3.59743110636460E+01  -1.21749201107638E-08
      3.25000000000000E-01
      1.50000000000000E+01   1.50000000000000E+01   0.00000000000000E+00   0.00000000000000E+00   0.00000000000000E+00
      0.00000000000000E+00   0.00000000000000E+00   3.29838141685751E-07   0.00000000000000E+00   3.85527292560419E-08
      0.00000000000000E+00   0.00000000000000E+00  -2.90955926410804E+01  -9.45713668373080E+00  -3.85527293248112E+01
     -1.76656751319894E-07   1.62500000000000E+00   1.62499996144727E+00   0.00000000000000E+00   0.00000000000000E+00
      2.89040489424075E+01   9.64868038743199E+00   3.85527293298395E+01  -1.19985017564326E-08
      3.33333333333334E-01
      1.50000000000000E+01   1.50000000000000E+01   0.00000000000000E+00   0.00000000000000E+00   0.00000000000000E+00
      0.00000000000000E+00   0.00000000000000E+00   3.29771884379660E-07   0.00000000000000E+00   4.12131510303453E-08
      0.00000000000000E+00   0.00000000000000E+00  -3.10847709960435E+01  -1.01283800260996E+01  -4.12131510221431E+01
     -1.76659673482800E-07   1.66666666666667E+00   1.66666662545351E+00   0.00000000000000E+00   0.00000000000000E+00
      3.08875506722393E+01   1.03256003537572E+01   4.12131510259966E+01  -1.18288720611070E-08
      3.41666666666667E-01
      1.50000000000000E+01   1.50000000000000E+01   0.00000000000000E+00   0.00000000000000E+00   0.00000000000000E+00
      0.00000000000000E+00   0.00000000000000E+00   3.29703642681664E-07   0.00000000000000E+00   4.39556614264911E-08
      0.00000000000000E+00   0.00000000000000E+00  -3.31345997984495E+01  -1.08210616602337E+01  -4.39556614586832E+01
     -1.76662091718316E-07   1.70833333333333E+00   1.70833328937768E+00   0.00000000000000E+00   0.00000000000000E+00
      3.29316988320208E+01   1.10239626296340E+01   4.39556614616548E+01  -1.16655460212833E-08
      3.50000000000000E-01
      1.50000000000000E+01   1.50000000000000E+01   0.00000000000000E+00   0.00000000000000E+00   0.00000000000000E+00
      0.00000000000000E+00   0.00000000000000E+00   3.29633414213181E-07   0.00000000000000E+00   4.67804310920010E-08
      0.00000000000000E+00   0.00000000000000E+00  -3.52451915965967E+01  -1.15352394516605E+01  -4.67804310482572E+01
     -1.76664009484710E-07   1.75000000000000E+00   1.74999995321958E+00   0.00000000000000E+00   0.00000000000000E+00
      3.50366023369290E+01   1.17438287136342E+01   4.67804310505632E+01  -1.15080882619305E-08
      3.58333333333334E-01
      1.50000000000000E+01   1.50000000000000E+01   0.00000000000000E+00   0.00000000000000E+00   0.00000000000000E+00
      0.00000000000000E+00   0.00000000000000E+00   3.29561194550020E-07   0.00000000000000E+00   4.96877087424234E-08
      0.00000000000000E+00   0.00000000000000E+00  -3.74167160948995E+01  -1.22709925698530E+01  -4.96877086647525E+01
     -1.76665429777458E-07   1.79166666666667E+00   1.79166661697896E+00   0.00000000000000E+00   0.00000000000000E+00
      3.72024275504478E+01   1.24852811161055E+01   4.96877086665533E+01  -1.13561067388740E-08
      3.66666666666667E-01
      1.50000000000000E+01   1.50000000000000E+01   0.00000000000000E+00   0.00000000000000E+00   0.00000000000000E+00
      0.00000000000000E+00   0.00000000000000E+00   3.29486977144741E-07   0.00000000000000E+00   5.26778242840544E-08
      0.00000000000000E+00   0.00000000000000E+00  -3.96494022044689E+01  -1.30284220743151E+01  -5.26778242787840E+01
     -1.76666355122302E-07   1.83333333333333E+00   1.83333328065550E+00   0.00000000000000E+00   0.00000000000000E+00
      3.94294002737840E+01   1.32484240064118E+01   5.26778242801958E+01  -1.12092468726290E-08
      3.75000000000000E-01
      1.50000000000000E+01   1.50000000000000E+01   0.00000000000000E+00   0.00000000000000E+00   0.00000000000000E+00
      0.00000000000000E+00   0.00000000000000E+00   3.29410753444844E-07   0.00000000000000E+00   5.57511838543218E-08
      0.00000000000000E+00   0.00000000000000E+00  -4.19435342134715E+01  -1.38076496394048E+01  -5.57511838528762E+01
     -1.76666787532516E-07   1.87500000000000E+00   1.87499994424882E+00   0.00000000000000E+00   0.00000000000000E+00
      4.17178019003113E+01   1.40333819536776E+01   5.57511838539889E+01  -1.10671870711005E-08
      3.83333333333334E-01
      1.50000000000000E+01   1.50000000000000E+01   0.00000000000000E+00   0.00000000000000E+00   0.00000000000000E+00
      0.00000000000000E+00   0.00000000000000E+00   3.29332512961493E-07   0.00000000000000E+00   5.89082661479960E-08
      0.00000000000000E+00   0.00000000000000E+00  -4.42994494200862E+01  -1.46088167426853E+01  -5.89082661627715E+01
     -1.76666728488160E-07   1.91666666666667E+00   1.91666660775839E+00   0.00000000000000E+00   0.00000000000000E+00
      4.40679670254888E+01   1.48402991381643E+01   5.89082661636532E+01  -1.09296347994654E-08
      3.91666666666667E-01
      1.50000000000000E+01   1.50000000000000E+01   0.00000000000000E+00   0.00000000000000E+00   0.00000000000000E+00
      0.00000000000000E+00   0.00000000000000E+00   3.29252243340957E-07   0.00000000000000E+00   6.21496194781581E-08
      0.00000000000000E+00   0.00000000000000E+00  -4.67175356618110E+01  -1.54320838198044E+01  -6.21496194816154E+01
     -1.76666178922418E-07   1.95833333333334E+00   1.95833327118372E+00   0.00000000000000E+00   0.00000000000000E+00
      4.64802809565488E+01   1.56693385257660E+01   6.21496194823148E+01  -1.07963232245682E-08
      4.00000000000000E-01
      1.50000000000000E+01   1.50000000000000E+01   0.00000000000000E+00   0.00000000000000E+00   0.00000000000000E+00