DF-ISE text

Info {
  version   = 1.0
  type      = xyplot
  datasets  = [
    "time"
    "gate OuterVoltage" "gate InnerVoltage" "gate QuasiFermiPotential" "gate DisplacementCurrent" "gate eCurrent"
    "gate hCurrent" "gate TotalCurrent" "gate Charge" "emitter OuterVoltage" "emitter InnerVoltage"
    "emitter QuasiFermiPotential" "emitter DisplacementCurrent" "emitter eCurrent" "emitter hCurrent" "emitter TotalCurrent"
    "emitter Charge" "collector OuterVoltage" "collector InnerVoltage" "collector QuasiFermiPotential" "collector DisplacementCurrent"
    "collector eCurrent" "collector hCurrent" "collector TotalCurrent" "collector Charge" ]
  functions = [
    Time
    OuterVoltage InnerVoltage QuasiFermiPotential DisplacementCurrent eCurrent
    hCurrent TotalCurrent Charge OuterVoltage InnerVoltage
    QuasiFermiPotential DisplacementCurrent eCurrent hCurrent TotalCurrent
    Charge OuterVoltage InnerVoltage QuasiFermiPotential DisplacementCurrent
    eCurrent hCurrent TotalCurrent Charge ]
}

Data {
      0.00000000000000E+00
      0.00000000000000E+00   0.00000000000000E+00   0.00000000000000E+00   0.00000000000000E+00   0.00000000000000E+00
      0.00000000000000E+00   0.00000000000000E+00   3.33664604672956E-09   0.00000000000000E+00   0.00000000000000E+00
      0.00000000000000E+00   0.00000000000000E+00  -4.36734780935698E-12  -4.13322692325703E-08  -4.13366365803797E-08
     -1.73974149008772E-08   5.00000000000000E+00   4.99999999999999E+00   0.00000000000000E+00   0.00000000000000E+00
      3.18881227862750E-08   9.44851379411094E-09   4.13366365803859E-08  -6.93269588383174E-08
      8.33333333333333E-03
      1.25000000000000E-01   1.25000000000000E-01   0.00000000000000E+00   0.00000000000000E+00   0.00000000000000E+00
      0.00000000000000E+00   0.00000000000000E+00   4.55863048141308E-09   0.00000000000000E+00   0.00000000000000E+00
      0.00000000000000E+00   0.00000000000000E+00  -4.42361394824062E-12  -4.06654673412944E-08  -4.06698909552426E-08
     -1.85331932138831E-08   5.00000000000000E+00   4.99999999999999E+00   0.00000000000000E+00   0.00000000000000E+00
      3.13737763211507E-08   9.29645103700993E-09   4.06702273581606E-08  -6.93722405834501E-08
      1.66666666666667E-02
      2.50000000000000E-01   2.49999999999999E-01   0.00000000000000E+00   0.00000000000000E+00   0.00000000000000E+00
      0.00000000000000E+00   0.00000000000000E+00   5.76709790050734E-09   0.00000000000000E+00   0.00000000000000E+00
      0.00000000000000E+00   0.00000000000000E+00  -4.48225992534461E-12  -3.99790690170282E-08  -3.99835512769535E-08
     -1.96552806226534E-08   5.00000000000000E+00   4.99999999999999E+00   0.00000000000000E+00   0.00000000000000E+00
      3.08440272218557E-08   9.13984536101039E-09   3.99838725828661E-08  -6.94196307106770E-08
      2.50000000000000E-02
      3.75000000000000E-01   3.74999999999999E-01   0.00000000000000E+00   0.00000000000000E+00   0.00000000000000E+00
      0.00000000000000E+00   0.00000000000000E+00   6.96328141929420E-09   0.00000000000000E+00   0.00000000000000E+00
      0.00000000000000E+00   0.00000000000000E+00  -4.51936625223094E-12  -3.93641363408915E-08  -3.93686557071437E-08
     -2.07648266514653E-08   5.00000000000000E+00   4.99999999999999E+00   0.00000000000000E+00   0.00000000000000E+00
      3.03694326902692E-08   8.99951786253861E-09   3.93689505528078E-08  -6.94627737308296E-08
      3.33333333333333E-02
      5.00000000000000E-01   4.99999999999999E-01   0.00000000000000E+00   0.00000000000000E+00   0.00000000000000E+00
      0.00000000000000E+00   0.00000000000000E+00   8.14810582847460E-09   0.00000000000000E+00   0.00000000000000E+00
      0.00000000000000E+00   0.00000000000000E+00  -4.79325467476336E-12  -3.88884358415585E-08  -3.88932290962333E-08
     -2.18626714636292E-08   5.00000000000000E+00   4.99999999999999E+00   0.00000000000000E+00   0.00000000000000E+00
      3.00023165151618E-08   8.89091258109247E-09   3.88932290962542E-08  -6.94966013887432E-08
      4.16666666666667E-02
      6.25000000000000E-01   6.24999999999998E-01   0.00000000000000E+00   0.00000000000000E+00   0.00000000000000E+00
      0.00000000000000E+00   0.00000000000000E+00   9.32215758165156E-09   0.00000000000000E+00   0.00000000000000E+00
      0.00000000000000E+00   0.00000000000000E+00  -5.02973297216535E-12  -3.85671940166270E-08  -3.85722237495991E-08
     -2.29493436145330E-08   5.00000000000000E+00   4.99999999999999E+00   0.00000000000000E+00   0.00000000000000E+00
      2.97546608183726E-08   8.81756293122447E-09   3.85722237495971E-08  -6.95196628607306E-08
      5.00000000000000E-02
      7.50000000000000E-01   7.49999999999998E-01   0.00000000000000E+00   0.00000000000000E+00   0.00000000000000E+00
      0.00000000000000E+00   0.00000000000000E+00   1.04856739546972E-08   0.00000000000000E+00   0.00000000000000E+00
      0.00000000000000E+00   0.00000000000000E+00  -5.38682713727306E-12  -3.83801871648467E-08  -3.83855739919840E-08
     -2.40250276154326E-08   5.00000000000000E+00   4.99999999999999E+00   0.00000000000000E+00   0.00000000000000E+00
      2.96107800579948E-08   8.77483957430859E-09   3.83856196323034E-08  -6.95331486049131E-08
      5.83333333333333E-02
      8.75000000000000E-01   8.74999999999998E-01   0.00000000000000E+00   0.00000000000000E+00   0.00000000000000E+00
      0.00000000000000E+00   0.00000000000000E+00   1.16386658795293E-08   0.00000000000000E+00   0.00000000000000E+00
      0.00000000000000E+00   0.00000000000000E+00  -5.94433531611492E-12  -3.82935553412598E-08  -3.82994996765759E-08
     -2.50896548958051E-08   5.00000000000000E+00   4.99999999999999E+00   0.00000000000000E+00   0.00000000000000E+00
      2.95444885171433E-08   8.75501115942144E-09   3.82994996765648E-08  -6.95393839309989E-08
      6.66666666666667E-02
      1.00000000000000E+00   9.99999999999998E-01   0.00000000000000E+00   0.00000000000000E+00   0.00000000000000E+00
      0.00000000000000E+00   0.00000000000000E+00   1.27812122194630E-08   0.00000000000000E+00   0.00000000000000E+00
      0.00000000000000E+00   0.00000000000000E+00  -6.84036037979041E-12  -3.82707471576250E-08  -3.82775875180048E-08
     -2.61431741639275E-08   5.00000000000000E+00   4.99999999999999E+00   0.00000000000000E+00   0.00000000000000E+00
      2.95277786708470E-08   8.74980884716357E-09   3.82775875180106E-08  -6.95409578372921E-08
      7.50000000000000E-02
      1.12500000000000E+00   1.12500000000000E+00   0.00000000000000E+00   0.00000000000000E+00   0.00000000000000E+00
      0.00000000000000E+00   0.00000000000000E+00   1.39137154576677E-08   0.00000000000000E+00   0.00000000000000E+00
      0.00000000000000E+00   0.00000000000000E+00  -8.31742635354594E-12  -3.82878741608369E-08  -3.82961915871905E-08
     -2.71857832302297E-08   5.00000000000000E+00   4.99999999999999E+00   0.00000000000000E+00   0.00000000000000E+00
      2.95423590273093E-08   8.75383255986878E-09   3.82961915871781E-08  -6.95395844592401E-08
      8.33333333333333E-02
      1.25000000000000E+00   1.25000000000000E+00   0.00000000000000E+00   0.00000000000000E+00   0.00000000000000E+00
      0.00000000000000E+00   0.00000000000000E+00   1.50368542941630E-08   0.00000000000000E+00   0.00000000000000E+00
      0.00000000000000E+00   0.00000000000000E+00  -1.08081469616361E-11  -3.83293509525525E-08  -3.83401590995141E-08
     -2.82178930850051E-08   5.00000000000000E+00   4.99999999999999E+00   0.00000000000000E+00   0.00000000000000E+00
      2.95765297790503E-08   8.76362932045511E-09   3.83401590995054E-08  -6.95363684242946E-08
      9.16666666666667E-02
      1.37500000000000E+00   1.37500000000000E+00   0.00000000000000E+00   0.00000000000000E+00   0.00000000000000E+00
      0.00000000000000E+00   0.00000000000000E+00   1.61513969192170E-08   0.00000000000000E+00   0.00000000000000E+00
      0.00000000000000E+00   0.00000000000000E+00  -1.50972645176255E-11  -3.83813254902396E-08  -3.83964227547572E-08
     -2.92399900030628E-08   5.00000000000000E+00   4.99999999999999E+00   0.00000000000000E+00   0.00000000000000E+00
      2.96202006325092E-08   8.77622312379999E-09   3.83964237563092E-08  -6.95322636387702E-08
      1.00000000000000E-01
      1.50000000000000E+00   1.50000000000000E+00   0.00000000000000E+00   0.00000000000000E+00   0.00000000000000E+00
      0.00000000000000E+00   0.00000000000000E+00   1.72580986968191E-08   0.00000000000000E+00   0.00000000000000E+00
      0.00000000000000E+00   0.00000000000000E+00  -2.26343802465894E-11  -3.84407504681550E-08  -3.84633848484015E-08
     -3.02525994086814E-08   5.00000000000000E+00   4.99999999999999E+00   0.00000000000000E+00   0.00000000000000E+00
      2.96721329906040E-08   8.79125185777831E-09   3.84633848483823E-08  -6.95273901392036E-08
      1.08333333333333E-01
      1.62500000000000E+00   1.62500000000000E+00   0.00000000000000E+00   0.00000000000000E+00   0.00000000000000E+00
      0.00000000000000E+00   0.00000000000000E+00   1.83576106308045E-08   0.00000000000000E+00   0.00000000000000E+00
      0.00000000000000E+00   0.00000000000000E+00  -3.61473974063340E-11  -3.85049924439546E-08  -3.85411398413610E-08
     -3.12562730360356E-08   5.00000000000000E+00   4.99999999999999E+00   0.00000000000000E+00   0.00000000000000E+00
      2.97323991460321E-08   8.80874069532479E-09   3.85411398413569E-08  -6.95217451762493E-08
      1.16666666666667E-01
      1.75000000000000E+00   1.75000000000000E+00   0.00000000000000E+00   0.00000000000000E+00   0.00000000000000E+00
      0.00000000000000E+00   0.00000000000000E+00   1.94503984097131E-08   0.00000000000000E+00   0.00000000000000E+00
      0.00000000000000E+00   0.00000000000000E+00  -6.08689977585817E-11  -3.85671754067741E-08  -3.86280444045326E-08
     -3.22515260844316E-08   5.00000000000000E+00   4.99999999999999E+00   0.00000000000000E+00   0.00000000000000E+00
      2.97997270997389E-08   8.82831741419647E-09   3.86280445139354E-08  -6.95154521763672E-08
      1.25000000000000E-01
      1.87500000000000E+00   1.87500000000000E+00   0.00000000000000E+00   0.00000000000000E+00   0.00000000000000E+00
      0.00000000000000E+00   0.00000000000000E+00   2.05367619813061E-08   0.00000000000000E+00   0.00000000000000E+00
      0.00000000000000E+00   0.00000000000000E+00  -1.07035505212121E-10  -3.86203879531765E-08  -3.87274234583886E-08
     -3.32388080357445E-08   5.00000000000000E+00   4.99999999999999E+00   0.00000000000000E+00   0.00000000000000E+00
      2.98766825901469E-08   8.85074086824243E-09   3.87274234583894E-08  -6.95082765804530E-08
      1.33333333333333E-01
      2.00000000000000E+00   2.00000000000000E+00   0.00000000000000E+00   0.00000000000000E+00   0.00000000000000E+00
      0.00000000000000E+00   0.00000000000000E+00   2.16169375771254E-08   0.00000000000000E+00   0.00000000000000E+00
      0.00000000000000E+00   0.00000000000000E+00  -1.95077992698426E-10  -3.86511492743193E-08  -3.88462272670177E-08
     -3.42185463138493E-08   5.00000000000000E+00   4.99999999999999E+00   0.00000000000000E+00   0.00000000000000E+00
      2.99686323998028E-08   8.87759488810053E-09   3.88462272879033E-08  -6.94997268913882E-08
      1.41666666666667E-01
      2.12500000000000E+00   2.12500000000000E+00   0.00000000000000E+00   0.00000000000000E+00   0.00000000000000E+00
      0.00000000000000E+00   0.00000000000000E+00   2.26911833188044E-08   0.00000000000000E+00   0.00000000000000E+00
      0.00000000000000E+00   0.00000000000000E+00  -3.66611614895126E-10  -3.86269695923847E-08  -3.89935812072798E-08
     -3.51911882287883E-08   5.00000000000000E+00   4.99999999999999E+00   0.00000000000000E+00   0.00000000000000E+00
      3.00826234631262E-08   8.91095774415479E-09   3.89935812072810E-08  -6.94891638537181E-08
      1.50000000000000E-01
      2.25000000000000E+00   2.24999999999999E+00   0.00000000000000E+00   0.00000000000000E+00   0.00000000000000E+00
      0.00000000000000E+00   0.00000000000000E+00   2.37598009149922E-08   0.00000000000000E+00   0.00000000000000E+00
      0.00000000000000E+00   0.00000000000000E+00  -7.08104329327131E-10  -3.84903304541808E-08  -3.91984347835079E-08
     -3.61571800504889E-08   5.00000000000000E+00   4.99999999999999E+00   0.00000000000000E+00   0.00000000000000E+00
      3.02410115476591E-08   8.95742323990257E-09   3.91984347875617E-08  -6.94745525455954E-08
      1.58333333333333E-01
      2.37500000000000E+00   2.37500000000000E+00   0.00000000000000E+00   0.00000000000000E+00   0.00000000000000E+00
      0.00000000000000E+00   0.00000000000000E+00   2.48231439192540E-08   0.00000000000000E+00   0.00000000000000E+00
      0.00000000000000E+00   0.00000000000000E+00  -1.40265032380236E-09  -3.81767875563677E-08  -3.95794378801700E-08
     -3.71168911555732E-08   5.00000000000000E+00   4.99999999999999E+00   0.00000000000000E+00   0.00000000000000E+00
      3.05354196455290E-08   9.04401823463879E-09   3.95794378801678E-08  -6.94475942008229E-08
      1.66666666666667E-01
      2.50000000000000E+00   2.49999999999999E+00   0.00000000000000E+00   0.00000000000000E+00   0.00000000000000E+00
      0.00000000000000E+00   0.00000000000000E+00   2.58816905240370E-08   0.00000000000000E+00   0.00000000000000E+00
      0.00000000000000E+00   0.00000000000000E+00  -2.84482866165155E-09  -3.76935739049193E-08  -4.05384025665709E-08
     -3.80704834937770E-08   5.00000000000000E+00   4.99999999999999E+00   0.00000000000000E+00   0.00000000000000E+00
      3.12761369482799E-08   9.26226561829736E-09   4.05384025665773E-08  -6.93808938361024E-08
      1.75000000000000E-01
      2.62500000000000E+00   2.62500000000000E+00   0.00000000000000E+00   0.00000000000000E+00   0.00000000000000E+00
      0.00000000000000E+00   0.00000000000000E+00   2.69361864372271E-08   0.00000000000000E+00   0.00000000000000E+00
      0.00000000000000E+00   0.00000000000000E+00  -5.89903257526930E-09  -3.72191865677600E-08  -4.31182191430293E-08
     -3.90177511460864E-08   5.00000000000000E+00   4.99999999999999E+00   0.00000000000000E+00   0.00000000000000E+00
      3.32685582943649E-08   9.84966084879445E-09   4.31182191431593E-08  -6.92089822088853E-08
      1.83333333333333E-01
      2.75000000000000E+00   2.74999999999999E+00   0.00000000000000E+00   0.00000000000000E+00   0.00000000000000E+00
      0.00000000000000E+00   0.00000000000000E+00   2.79877285163418E-08   0.00000000000000E+00   9.18447372075268E-17
      0.00000000000000E+00   0.00000000000000E+00  -1.24887523397047E-08  -3.70828413685556E-08  -4.95715937082603E-08
     -3.99580593586614E-08   5.00000000000000E+00   4.99999999999999E+00   0.00000000000000E+00   0.00000000000000E+00
      3.82526637229844E-08   1.13189299852777E-08   4.95715937082621E-08  -6.88201423338773E-08
      1.91666666666667E-01
      2.87500000000000E+00   2.87500000000001E+00   0.00000000000000E+00   0.00000000000000E+00   0.00000000000000E+00
      0.00000000000000E+00   0.00000000000000E+00   2.90376571440235E-08   0.00000000000000E+00   9.18447372075268E-17
      0.00000000000000E+00   0.00000000000000E+00  -2.69607112717323E-08  -3.77646496833876E-08  -6.47253609551199E-08
     -4.08905032321961E-08   5.00000000000000E+00   4.99999999999999E+00   0.00000000000000E+00   0.00000000000000E+00
      4.99579527275686E-08   1.47675012115635E-08   6.47254539391321E-08  -6.80757360508045E-08
      2.00000000000000E-01
      3.00000000000000E+00   2.99999999999999E+00   0.00000000000000E+00   0.00000000000000E+00   0.00000000000000E+00
      0.00000000000000E+00   0.00000000000000E+00   3.00871322513064E-08   0.00000000000000E+00   9.18447372075268E-17
      0.00000000000000E+00   0.00000000000000E+00  -5.92891903927396E-08  -4.01914236489829E-08  -9.94806140417225E-08
     -4.18144065583267E-08   5.00000000000000E+00   4.99999999999999E+00   0.00000000000000E+00   0.00000000000000E+00
      7.68111590841308E-08   2.26694820182581E-08   9.94806411023889E-08  -6.68745276635330E-08
      2.08333333333333E-01
      3.12500000000000E+00   3.12500000000001E+00   0.00000000000000E+00   0.00000000000000E+00   0.00000000000000E+00
      0.00000000000000E+00   0.00000000000000E+00   3.11366926307423E-08   0.00000000000000E+00   1.83689474415054E-16
      0.00000000000000E+00   0.00000000000000E+00  -1.32706846372585E-07  -4.65182273697669E-08  -1.79225073742352E-07
     -4.27298571195218E-08   5.00000000000000E+00   4.99999999999999E+00   0.00000000000000E+00   0.00000000000000E+00
      1.38450711968367E-07   4.07745792364350E-08   1.79225291204802E-07  -6.52269398133811E-08
      2.16666666666667E-01
      3.25000000000000E+00   3.25000000000000E+00   0.00000000000000E+00   0.00000000000000E+00   0.00000000000000E+00
      0.00000000000000E+00   0.00000000000000E+00   3.21865285119007E-08   0.00000000000000E+00   3.67378948830107E-16
      0.00000000000000E+00   0.00000000000000E+00  -3.02106474180096E-07  -6.21762952938665E-08  -3.64282769473962E-07
     -4.36374999501544E-08   5.00000000000000E+00   4.99999999999999E+00   0.00000000000000E+00   0.00000000000000E+00
      2.81577258023593E-07   8.27176754618340E-08   3.64294933485427E-07  -6.32395007981004E-08
      2.25000000000000E-01
      3.37500000000000E+00   3.37500000000000E+00   0.00000000000000E+00   0.00000000000000E+00   0.00000000000000E+00
      0.00000000000000E+00   0.00000000000000E+00   3.32369241862593E-08   0.00000000000000E+00   8.26602634867741E-16
      0.00000000000000E+00   0.00000000000000E+00  -6.98945941987899E-07  -1.00888265877375E-07  -7.99834207865274E-07
     -4.45379430810884E-08   5.00000000000000E+00   4.99999999999999E+00   0.00000000000000E+00   0.00000000000000E+00
      6.18595550236904E-07   1.81241825721761E-07   7.99837375958664E-07  -6.10340602303338E-08
      2.33333333333333E-01
      3.50000000000000E+00   3.49999999999999E+00   0.00000000000000E+00   0.00000000000000E+00   0.00000000000000E+00
      0.00000000000000E+00   0.00000000000000E+00   3.42879344015394E-08   0.00000000000000E+00   1.83689474415053E-15
      0.00000000000000E+00   0.00000000000000E+00  -1.64213469544948E-06  -1.96290577614914E-07  -1.83842527306439E-06
     -4.54316328646135E-08   5.00000000000000E+00   4.99999999999999E+00   0.00000000000000E+00   0.00000000000000E+00
      1.42265382140289E-06   4.15773126700243E-07   1.83842694810313E-06  -5.86990448746766E-08
      2.41666666666667E-01
      3.62500000000000E+00   3.62500000000001E+00   0.00000000000000E+00   0.00000000000000E+00   0.00000000000000E+00
      0.00000000000000E+00   0.00000000000000E+00   3.53391454142799E-08   0.00000000000000E+00   4.31670264875376E-15
      0.00000000000000E+00   0.00000000000000E+00  -3.91524839295309E-06  -4.31511613415908E-07  -4.34676000636899E-06
     -4.63189136170305E-08   5.00000000000000E+00   4.99999999999999E+00   0.00000000000000E+00   0.00000000000000E+00
      3.36540853810381E-06   9.81351470979252E-07   4.34676000908307E-06  -5.62838869045842E-08
      2.50000000000000E-01
      3.75000000000000E+00   3.75000000000000E+00   0.00000000000000E+00   0.00000000000000E+00   0.00000000000000E+00
      0.00000000000000E+00   0.00000000000000E+00   3.63900531983794E-08   0.00000000000000E+00   1.04703000416580E-14
      0.00000000000000E+00   0.00000000000000E+00  -9.46852549665697E-06  -1.01453728738734E-06  -1.04830627840443E-05
     -4.71999562442224E-08   5.00000000000000E+00   4.99999999999998E+00   0.00000000000000E+00   0.00000000000000E+00
      8.11980979360951E-06   2.36325299043519E-06   1.04830627840447E-05  -5.38124197278469E-08
      2.58333333333333E-01
      3.87500000000000E+00   3.87499999999999E+00   0.00000000000000E+00   0.00000000000000E+00   0.00000000000000E+00
      0.00000000000000E+00   0.00000000000000E+00   3.74404585458617E-08   0.00000000000000E+00   2.57165264181075E-14
      0.00000000000000E+00   0.00000000000000E+00  -2.32201960064584E-05  -2.47090799560852E-06  -2.56911040020669E-05
     -4.80747278788691E-08   5.00000000000000E+00   4.99999999999998E+00   0.00000000000000E+00   0.00000000000000E+00
      1.99064400174902E-05   5.78466398458060E-06   2.56911040020708E-05  -5.12951945451578E-08
      2.66666666666667E-01
      4.00000000000000E+00   3.99999999999999E+00   0.00000000000000E+00   0.00000000000000E+00   0.00000000000000E+00
      0.00000000000000E+00   0.00000000000000E+00   3.84906380065954E-08   0.00000000000000E+00   6.39239370964386E-14
      0.00000000000000E+00   0.00000000000000E+00  -5.77409350103568E-05  -6.14268130288222E-06  -6.38836163132390E-05
     -4.89430912599108E-08   5.00000000000000E+00   4.99999999999995E+00   0.00000000000000E+00   0.00000000000000E+00
      4.95137274831638E-05   1.43698888300830E-05   6.38836163132467E-05  -4.87364335665657E-08
      2.75000000000000E-01
      4.12500000000000E+00   4.12500000000000E+00   0.00000000000000E+00   0.00000000000000E+00   0.00000000000000E+00
      0.00000000000000E+00   0.00000000000000E+00   3.95415457303720E-08   0.00000000000000E+00   1.61095669062002E-13
      0.00000000000000E+00   0.00000000000000E+00  -1.45599280689688E-04  -1.54999197484888E-05  -1.61099200438177E-04
     -4.98049061500466E-08   5.00000000000000E+00   4.99999999999986E+00   0.00000000000000E+00   0.00000000000000E+00
      1.24891473631062E-04   3.62077268070983E-05   1.61099200438160E-04  -4.61374535197935E-08
      2.83333333333333E-01
      4.25000000000000E+00   4.25000000000001E+00   0.00000000000000E+00   0.00000000000000E+00   0.00000000000000E+00
      0.00000000000000E+00   0.00000000000000E+00   4.05960677829660E-08   0.00000000000000E+00   4.11923646375757E-13
      0.00000000000000E+00   0.00000000000000E+00  -3.72316831466475E-04  -3.96368939488729E-05  -4.11953725415348E-04
     -5.06598507010925E-08   5.00000000000000E+00   4.99999999999960E+00   0.00000000000000E+00   0.00000000000000E+00
      3.19430371111675E-04   9.25233543036993E-05   4.11953725415374E-04  -4.34984550304452E-08
      2.91666666666667E-01
      4.37500000000000E+00   4.37499999999999E+00   0.00000000000000E+00   0.00000000000000E+00   0.00000000000000E+00
      0.00000000000000E+00   0.00000000000000E+00   4.16704674321665E-08   0.00000000000000E+00   1.06806244898633E-12
      0.00000000000000E+00   0.00000000000000E+00  -9.65325969512866E-04  -1.02743854079170E-04  -1.06806982359204E-03
     -5.15064821542778E-08   5.00000000000000E+00   4.99999999999894E+00   0.00000000000000E+00   0.00000000000000E+00
      8.28345400282929E-04   2.39724423309201E-04   1.06806982359213E-03  -4.08196600638153E-08
      3.00000000000000E-01
      4.50000000000000E+00   4.49999999999999E+00   0.00000000000000E+00   0.00000000000000E+00   0.00000000000000E+00
      0.00000000000000E+00   0.00000000000000E+00   4.28520428897004E-08   0.00000000000000E+00   2.80585672168994E-12
      0.00000000000000E+00   0.00000000000000E+00  -2.53558265547764E-03  -2.70299026666899E-04  -2.80588168214454E-03
     -5.23398459182647E-08   5.00000000000000E+00   4.99999999999719E+00   0.00000000000000E+00   0.00000000000000E+00
      2.17661655159375E-03   6.29265130550711E-04   2.80588168214446E-03  -3.81026494547783E-08
      3.08333333333333E-01
      4.62500000000000E+00   4.62500000000000E+00   0.00000000000000E+00   0.00000000000000E+00   0.00000000000000E+00
      0.00000000000000E+00   0.00000000000000E+00   4.42044337497964E-08   0.00000000000000E+00   7.45310857965359E-12
      0.00000000000000E+00   0.00000000000000E+00  -6.72945367191040E-03  -7.23632970692456E-04  -7.45308664260286E-03
     -5.31573705993580E-08   5.00000000000000E+00   4.99999999999255E+00   0.00000000000000E+00   0.00000000000000E+00
      5.78384143706241E-03   1.66924520554071E-03   7.45308664260312E-03  -3.53529725372368E-08
      3.16666666666667E-01
      4.75000000000000E+00   4.75000000000001E+00   0.00000000000000E+00   0.00000000000000E+00   0.00000000000000E+00
      0.00000000000000E+00   0.00000000000000E+00   4.57098651191164E-08   0.00000000000000E+00   1.99146025239708E-11
      0.00000000000000E+00   0.00000000000000E+00  -1.79307391309518E-02  -1.98385121312896E-03  -1.99145903440808E-02
     -5.39593304722843E-08   5.00000000000000E+00   4.99999999998007E+00   0.00000000000000E+00   0.00000000000000E+00
      1.54669017933195E-02   4.44768855076258E-03   1.99145903440821E-02  -3.25842339063786E-08
      3.25000000000000E-01
      4.87500000000000E+00   4.87499999999998E+00   0.00000000000000E+00   0.00000000000000E+00   0.00000000000000E+00
      0.00000000000000E+00   0.00000000000000E+00   4.73658067619210E-08   0.00000000000000E+00   5.30846967454179E-11
      0.00000000000000E+00   0.00000000000000E+00  -4.74331822564541E-02  -5.65153296386954E-03  -5.30847152203236E-02
     -5.47420331738256E-08   5.00000000000000E+00   4.99999999994693E+00   0.00000000000000E+00   0.00000000000000E+00
      4.13006955324007E-02   1.17840196879190E-02   5.30847152203197E-02  -2.98184938437646E-08
      3.33333333333334E-01
      5.00000000000000E+00   4.99999999999999E+00   0.00000000000000E+00   0.00000000000000E+00   0.00000000000000E+00
      0.00000000000000E+00   0.00000000000000E+00   4.93053558141338E-08   0.00000000000000E+00   1.39504991928731E-10
      0.00000000000000E+00   0.00000000000000E+00  -1.22561004737114E-01  -1.69439694913699E-02  -1.39504974228484E-01
     -5.54858062518137E-08   5.00000000000000E+00   4.99999999986050E+00   0.00000000000000E+00   0.00000000000000E+00
      1.08861988926792E-01   3.06429853016825E-02   1.39504974228475E-01  -2.70893771498123E-08
      3.41666666666667E-01
      5.12500000000000E+00   5.12500000000000E+00   0.00000000000000E+00   0.00000000000000E+00   0.00000000000000E+00
      0.00000000000000E+00   0.00000000000000E+00   5.16108477159649E-08   0.00000000000000E+00   3.54305217867564E-10
      0.00000000000000E+00   0.00000000000000E+00  -3.03009478394980E-01  -5.12957840018648E-02  -3.54305262396845E-01
     -5.61770286428913E-08   5.00000000000000E+00   4.99999999964570E+00   0.00000000000000E+00   0.00000000000000E+00
      2.77236053931855E-01   7.70692084649599E-02   3.54305262396815E-01  -2.44625671314056E-08
      3.50000000000000E-01
      5.25000000000000E+00   5.25000000000002E+00   0.00000000000000E+00   0.00000000000000E+00   0.00000000000000E+00
      0.00000000000000E+00   0.00000000000000E+00   5.43927396250615E-08   0.00000000000000E+00   8.46602469307840E-10
      0.00000000000000E+00   0.00000000000000E+00  -7.03366401701048E-01  -1.43236112004007E-01  -8.46602513705055E-01
     -5.67978165108743E-08   5.00000000000000E+00   4.99999999915338E+00   0.00000000000000E+00   0.00000000000000E+00
      6.62213275689055E-01   1.84389238016025E-01   8.46602513705080E-01  -2.20355631232627E-08
      3.58333333333334E-01
      5.37500000000000E+00   5.37500000000002E+00   0.00000000000000E+00   0.00000000000000E+00   0.00000000000000E+00
      0.00000000000000E+00   0.00000000000000E+00   5.77803586830684E-08   0.00000000000000E+00   1.85420215011940E-09
      0.00000000000000E+00   0.00000000000000E+00  -1.50379239215245E+00  -3.50409764690393E-01  -1.85420215684284E+00
     -5.73273326224276E-08   5.00000000000000E+00   4.99999999814580E+00   0.00000000000000E+00   0.00000000000000E+00
      1.44500525342829E+00   4.09196903414565E-01   1.85420215684285E+00  -1.99002854022851E-08
      3.66666666666667E-01
      5.50000000000000E+00   5.50000000000000E+00   0.00000000000000E+00   0.00000000000000E+00   0.00000000000000E+00
      0.00000000000000E+00   0.00000000000000E+00   6.18140615466656E-08   0.00000000000000E+00   3.66571596852158E-09
      0.00000000000000E+00   0.00000000000000E+00  -2.91998832126130E+00  -7.45727639480036E-01  -3.66571596074134E+00
     -5.77840319940673E-08   5.00000000000000E+00   4.99999999633430E+00   0.00000000000000E+00   0.00000000000000E+00
      2.84199683541730E+00   8.23719125324369E-01   3.66571596074167E+00  -1.80967103290128E-08
      3.75000000000000E-01
      5.62500000000001E+00   5.62500000000000E+00   0.00000000000000E+00   0.00000000000000E+00   0.00000000000000E+00
      0.00000000000000E+00   0.00000000000000E+00   6.63891230391341E-08   0.00000000000000E+00   6.53329134332287E-09
      0.00000000000000E+00   0.00000000000000E+00  -5.13756605355832E+00  -1.39572532094746E+00  -6.53329137450578E+00
     -5.84075363748840E-08   5.00000000000000E+00   4.99999999346670E+00   0.00000000000000E+00   0.00000000000000E+00
      5.03947734181586E+00   1.49381403269000E+00   6.53329137450586E+00  -1.66064452691349E-08
      3.83333333333334E-01
      5.75000000000001E+00   5.75000000000002E+00   0.00000000000000E+00   0.00000000000000E+00   0.00000000000000E+00
      0.00000000000000E+00   0.00000000000000E+00   7.13218433771445E-08   0.00000000000000E+00   1.06073989770062E-08
      0.00000000000000E+00   0.00000000000000E+00  -8.26462518338080E+00  -2.34277381845144E+00  -1.06073990018322E+01
     -5.92835492399074E-08   5.00000000000000E+00   4.99999998939259E+00   0.00000000000000E+00   0.00000000000000E+00
      8.14609749843515E+00   2.46130150339739E+00   1.06073990018325E+01  -1.53787114503435E-08
      3.91666666666667E-01
      5.87500000000001E+00   5.87500000000002E+00   0.00000000000000E+00   0.00000000000000E+00   0.00000000000000E+00
      0.00000000000000E+00   0.00000000000000E+00   7.64474251034557E-08   0.00000000000000E+00   1.59369564787450E-08
      0.00000000000000E+00   0.00000000000000E+00  -1.23331452000829E+01  -3.60381129855544E+00  -1.59369564986383E+01
     -6.03591905007598E-08   5.00000000000000E+00   4.99999998406303E+00   0.00000000000000E+00   0.00000000000000E+00
      1.21941779050806E+01   3.74277857599393E+00   1.59369564810745E+01  -1.43582125231130E-08
      4.00000000000000E-01
      6.00000000000001E+00   5.99999999999999E+00   0.00000000000000E+00   0.00000000000000E+00   0.00000000000000E+00