DF-ISE text

Info {
  version   = 1.0
  type      = xyplot
  datasets  = [
    "time"
    "gate OuterVoltage" "gate InnerVoltage" "gate QuasiFermiPotential" "gate DisplacementCurrent" "gate eCurrent"
    "gate hCurrent" "gate TotalCurrent" "gate Charge" "emitter OuterVoltage" "emitter InnerVoltage"
    "emitter QuasiFermiPotential" "emitter DisplacementCurrent" "emitter eCurrent" "emitter hCurrent" "emitter TotalCurrent"
    "emitter Charge" "collector OuterVoltage" "collector InnerVoltage" "collector QuasiFermiPotential" "collector DisplacementCurrent"
    "collector eCurrent" "collector hCurrent" "collector TotalCurrent" "collector Charge" ]
  functions = [
    Time
    OuterVoltage InnerVoltage QuasiFermiPotential DisplacementCurrent eCurrent
    hCurrent TotalCurrent Charge OuterVoltage InnerVoltage
    QuasiFermiPotential DisplacementCurrent eCurrent hCurrent TotalCurrent
    Charge OuterVoltage InnerVoltage QuasiFermiPotential DisplacementCurrent
    eCurrent hCurrent TotalCurrent Charge ]
}

Data {
      0.00000000000000E+00
      0.00000000000000E+00   0.00000000000000E+00   0.00000000000000E+00   0.00000000000000E+00   0.00000000000000E+00
      0.00000000000000E+00   0.00000000000000E+00  -7.39736319002411E-10   0.00000000000000E+00   0.00000000000000E+00
      0.00000000000000E+00   0.00000000000000E+00  -3.76815661223057E-12  -2.34709886403151E-08  -2.34747567969273E-08
     -2.52303922032347E-08   5.00000000000000E+00   4.99999999999998E+00   0.00000000000000E+00   0.00000000000000E+00
      1.75386424061347E-08   5.93611439079297E-09   2.34747567969277E-08  -7.10041719458965E-08
      8.33333333333333E-03
      1.25000000000000E-01   1.25000000000000E-01   0.00000000000000E+00   0.00000000000000E+00   0.00000000000000E+00
      0.00000000000000E+00   0.00000000000000E+00   5.96234606304268E-10   0.00000000000000E+00   0.00000000000000E+00
      0.00000000000000E+00   0.00000000000000E+00  -3.71441335345001E-12  -2.33082826356948E-08  -2.33119970490483E-08
     -2.64033501641828E-08   5.00000000000000E+00   4.99999999999998E+00   0.00000000000000E+00   0.00000000000000E+00
      1.74179439730906E-08   5.89417720668818E-09   2.33121211797787E-08  -7.10232855524278E-08
      1.66666666666667E-02
      2.50000000000000E-01   2.49999999999999E-01   0.00000000000000E+00   0.00000000000000E+00   0.00000000000000E+00
      0.00000000000000E+00   0.00000000000000E+00   1.91559628421249E-09   0.00000000000000E+00   0.00000000000000E+00
      0.00000000000000E+00   0.00000000000000E+00  -3.84801105398239E-12  -2.31293150585013E-08  -2.31331630695553E-08
     -2.75580363764368E-08   5.00000000000000E+00   4.99999999999998E+00   0.00000000000000E+00   0.00000000000000E+00
      1.72850483931604E-08   5.84824445179851E-09   2.31332928449590E-08  -7.10444905758229E-08
      2.50000000000000E-02
      3.75000000000000E-01   3.74999999999999E-01   0.00000000000000E+00   0.00000000000000E+00   0.00000000000000E+00
      0.00000000000000E+00   0.00000000000000E+00   3.22045572243561E-09   0.00000000000000E+00   0.00000000000000E+00
      0.00000000000000E+00   0.00000000000000E+00  -3.97014719307036E-12  -2.29410724074628E-08  -2.29450425546559E-08
     -2.86966948897450E-08   5.00000000000000E+00   4.99999999999998E+00   0.00000000000000E+00   0.00000000000000E+00
      1.71450265216248E-08   5.80001603412462E-09   2.29450425557494E-08  -7.10669854721010E-08
      3.33333333333333E-02
      5.00000000000000E-01   4.99999999999999E-01   0.00000000000000E+00   0.00000000000000E+00   0.00000000000000E+00
      0.00000000000000E+00   0.00000000000000E+00   4.51281461909991E-09   0.00000000000000E+00   0.00000000000000E+00
      0.00000000000000E+00   0.00000000000000E+00  -4.08990554189800E-12  -2.27566468964555E-08  -2.27607368019974E-08
     -2.98214144100345E-08   5.00000000000000E+00   4.99999999999998E+00   0.00000000000000E+00   0.00000000000000E+00
      1.70079118261000E-08   5.75282497641222E-09   2.27607368025122E-08  -7.10892014859444E-08
      4.16666666666667E-02
      6.25000000000000E-01   6.24999999999998E-01   0.00000000000000E+00   0.00000000000000E+00   0.00000000000000E+00
      0.00000000000000E+00   0.00000000000000E+00   5.79426091075047E-09   0.00000000000000E+00   0.00000000000000E+00
      0.00000000000000E+00   0.00000000000000E+00  -4.25968515171014E-12  -2.25893162860028E-08  -2.25935759711545E-08
     -3.09338079038454E-08   5.00000000000000E+00   4.99999999999998E+00   0.00000000000000E+00   0.00000000000000E+00
      1.68836003615259E-08   5.70997570000576E-09   2.25935760615316E-08  -7.11094965318769E-08
      5.00000000000000E-02
      7.50000000000000E-01   7.49999999999998E-01   0.00000000000000E+00   0.00000000000000E+00   0.00000000000000E+00
      0.00000000000000E+00   0.00000000000000E+00   7.06592673126135E-09   0.00000000000000E+00   0.00000000000000E+00
      0.00000000000000E+00   0.00000000000000E+00  -4.50329580851717E-12  -2.24536369542377E-08  -2.24581402500463E-08
     -3.20349635209643E-08   5.00000000000000E+00   4.99999999999998E+00   0.00000000000000E+00   0.00000000000000E+00
      1.67830478267932E-08   5.67512157920522E-09   2.24581694059984E-08  -7.11260211671063E-08
      5.83333333333333E-02
      8.75000000000000E-01   8.74999999999998E-01   0.00000000000000E+00   0.00000000000000E+00   0.00000000000000E+00
      0.00000000000000E+00   0.00000000000000E+00   8.32859917281474E-09   0.00000000000000E+00   0.00000000000000E+00
      0.00000000000000E+00   0.00000000000000E+00  -4.88747493658863E-12  -2.23493047920985E-08  -2.23541922670351E-08
     -3.31256163981898E-08   5.00000000000000E+00   4.99999999999998E+00   0.00000000000000E+00   0.00000000000000E+00
      1.67060206271705E-08   5.64817163989075E-09   2.23541922670612E-08  -7.11387456762518E-08
      6.66666666666667E-02
      1.00000000000000E+00   9.99999999999998E-01   0.00000000000000E+00   0.00000000000000E+00   0.00000000000000E+00
      0.00000000000000E+00   0.00000000000000E+00   9.58292888757238E-09   0.00000000000000E+00   0.00000000000000E+00
      0.00000000000000E+00   0.00000000000000E+00  -5.48064794087269E-12  -2.22585828107671E-08  -2.22640634587080E-08
     -3.42063758919332E-08   5.00000000000000E+00   4.99999999999998E+00   0.00000000000000E+00   0.00000000000000E+00
      1.66393534233374E-08   5.62471003542074E-09   2.22640634587581E-08  -7.11498057878595E-08
      7.50000000000000E-02
      1.12500000000000E+00   1.12500000000000E+00   0.00000000000000E+00   0.00000000000000E+00   0.00000000000000E+00
      0.00000000000000E+00   0.00000000000000E+00   1.08296123037664E-08   0.00000000000000E+00   0.00000000000000E+00
      0.00000000000000E+00   0.00000000000000E+00  -6.43531041480259E-12  -2.21695592522356E-08  -2.21759945626504E-08
     -3.52778364557468E-08   5.00000000000000E+00   4.99999999999998E+00   0.00000000000000E+00   0.00000000000000E+00
      1.65742178061675E-08   5.60177675648321E-09   2.21759945626507E-08  -7.11606541638147E-08
      8.33333333333333E-02
      1.25000000000000E+00   1.25000000000000E+00   0.00000000000000E+00   0.00000000000000E+00   0.00000000000000E+00
      0.00000000000000E+00   0.00000000000000E+00   1.20694001855120E-08   0.00000000000000E+00   0.00000000000000E+00
      0.00000000000000E+00   0.00000000000000E+00  -8.00794067668708E-12  -2.20704218586479E-08  -2.20784297993245E-08
     -3.63406033188697E-08   5.00000000000000E+00   4.99999999999998E+00   0.00000000000000E+00   0.00000000000000E+00
      1.65019558926671E-08   5.57647390724994E-09   2.20784297999170E-08  -7.11727388104300E-08
      9.16666666666667E-02
      1.37500000000000E+00   1.37500000000000E+00   0.00000000000000E+00   0.00000000000000E+00   0.00000000000000E+00
      0.00000000000000E+00   0.00000000000000E+00   1.33030420028037E-08   0.00000000000000E+00   0.00000000000000E+00
      0.00000000000000E+00   0.00000000000000E+00  -1.06530381005519E-11  -2.19505334783463E-08  -2.19611865164468E-08
     -3.73952396675848E-08   5.00000000000000E+00   4.99999999999998E+00   0.00000000000000E+00   0.00000000000000E+00
      1.64149340885191E-08   5.54625246755048E-09   2.19611865560696E-08  -7.11873613721872E-08
      1.00000000000000E-01
      1.50000000000000E+00   1.50000000000000E+00   0.00000000000000E+00   0.00000000000000E+00   0.00000000000000E+00
      0.00000000000000E+00   0.00000000000000E+00   1.45312481598400E-08   0.00000000000000E+00   0.00000000000000E+00
      0.00000000000000E+00   0.00000000000000E+00  -1.51894271823879E-11  -2.18213307175267E-08  -2.18365201447091E-08
     -3.84421838028887E-08   5.00000000000000E+00   4.99999999999998E+00   0.00000000000000E+00   0.00000000000000E+00
      1.63223297098996E-08   5.51419043480654E-09   2.18365201447061E-08  -7.12030063145947E-08
      1.08333333333333E-01
      1.62500000000000E+00   1.62500000000000E+00   0.00000000000000E+00   0.00000000000000E+00   0.00000000000000E+00
      0.00000000000000E+00   0.00000000000000E+00   1.57546081352815E-08   0.00000000000000E+00   0.00000000000000E+00
      0.00000000000000E+00   0.00000000000000E+00  -2.31175837849459E-11  -2.17085146988260E-08  -2.17316322826110E-08
     -3.94817439339875E-08   5.00000000000000E+00   4.99999999999998E+00   0.00000000000000E+00   0.00000000000000E+00
      1.62445199271314E-08   5.48711235696920E-09   2.17316322841006E-08  -7.12162197177111E-08
      1.16666666666667E-01
      1.75000000000000E+00   1.75000000000000E+00   0.00000000000000E+00   0.00000000000000E+00   0.00000000000000E+00
      0.00000000000000E+00   0.00000000000000E+00   1.69734820873833E-08   0.00000000000000E+00   0.00000000000000E+00
      0.00000000000000E+00   0.00000000000000E+00  -3.72357508717017E-11  -2.16197605351627E-08  -2.16569962860344E-08
     -4.05141608471654E-08   5.00000000000000E+00   4.99999999999998E+00   0.00000000000000E+00   0.00000000000000E+00
      1.61893460575294E-08   5.46765022876087E-09   2.16569962862903E-08  -7.12256270886885E-08
      1.25000000000000E-01
      1.87500000000000E+00   1.87500000000000E+00   0.00000000000000E+00   0.00000000000000E+00   0.00000000000000E+00
      0.00000000000000E+00   0.00000000000000E+00   1.81879829706475E-08   0.00000000000000E+00   0.00000000000000E+00
      0.00000000000000E+00   0.00000000000000E+00  -6.28587114495805E-11  -2.15424937014393E-08  -2.16053524128889E-08
     -4.15396165645691E-08   5.00000000000000E+00   4.99999999999998E+00   0.00000000000000E+00   0.00000000000000E+00
      1.61513620595361E-08   5.45399035334917E-09   2.16053524128853E-08  -7.12321219335979E-08
      1.33333333333333E-01
      2.00000000000000E+00   2.00000000000000E+00   0.00000000000000E+00   0.00000000000000E+00   0.00000000000000E+00
      0.00000000000000E+00   0.00000000000000E+00   1.93980469476563E-08   0.00000000000000E+00   0.00000000000000E+00
      0.00000000000000E+00   0.00000000000000E+00  -1.10275876720597E-10  -2.14654869909765E-08  -2.15757628676971E-08
     -4.25581722155521E-08   5.00000000000000E+00   4.99999999999998E+00   0.00000000000000E+00   0.00000000000000E+00
      1.61298649189998E-08   5.44589795451540E-09   2.15757628735152E-08  -7.12358043941949E-08
      1.41666666666667E-01
      2.12500000000000E+00   2.12500000000000E+00   0.00000000000000E+00   0.00000000000000E+00   0.00000000000000E+00
      0.00000000000000E+00   0.00000000000000E+00   2.06035129285665E-08   0.00000000000000E+00   0.00000000000000E+00
      0.00000000000000E+00   0.00000000000000E+00  -1.99803595904533E-10  -2.13834415014501E-08  -2.15832450973547E-08
     -4.35697303411524E-08   5.00000000000000E+00   4.99999999999998E+00   0.00000000000000E+00   0.00000000000000E+00
      1.61361160522438E-08   5.44712904511205E-09   2.15832450973559E-08  -7.12347330753932E-08
      1.50000000000000E-01
      2.25000000000000E+00   2.24999999999999E+00   0.00000000000000E+00   0.00000000000000E+00   0.00000000000000E+00
      0.00000000000000E+00   0.00000000000000E+00   2.18042495138825E-08   0.00000000000000E+00   0.00000000000000E+00
      0.00000000000000E+00   0.00000000000000E+00  -3.72355606092165E-10  -2.12947696545603E-08  -2.16671252606525E-08
     -4.45740658685486E-08   5.00000000000000E+00   4.99999999999998E+00   0.00000000000000E+00   0.00000000000000E+00
      1.61996041672075E-08   5.46752109514700E-09   2.16671252623545E-08  -7.12238756454570E-08
      1.58333333333333E-01
      2.37500000000000E+00   2.37500000000000E+00   0.00000000000000E+00   0.00000000000000E+00   0.00000000000000E+00
      0.00000000000000E+00   0.00000000000000E+00   2.30003592869120E-08   0.00000000000000E+00   0.00000000000000E+00
      0.00000000000000E+00   0.00000000000000E+00  -7.11925130993700E-10  -2.12071292396462E-08  -2.19190543706399E-08
     -4.55708990822465E-08   5.00000000000000E+00   4.99999999999998E+00   0.00000000000000E+00   0.00000000000000E+00
      1.63890532441800E-08   5.53000112646315E-09   2.19190543706432E-08  -7.11917249887513E-08
      1.66666666666667E-01
      2.50000000000000E+00   2.49999999999999E+00   0.00000000000000E+00   0.00000000000000E+00   0.00000000000000E+00
      0.00000000000000E+00   0.00000000000000E+00   2.41923748646045E-08   0.00000000000000E+00   0.00000000000000E+00
      0.00000000000000E+00   0.00000000000000E+00  -1.39413636377595E-09  -2.11555641758807E-08  -2.25497005396567E-08
     -4.65598658219879E-08   5.00000000000000E+00   4.99999999999998E+00   0.00000000000000E+00   0.00000000000000E+00
      1.68624500952670E-08   5.68725044439440E-09   2.25497005396614E-08  -7.11129642062502E-08
      1.75000000000000E-01
      2.62500000000000E+00   2.62500000000000E+00   0.00000000000000E+00   0.00000000000000E+00   0.00000000000000E+00
      0.00000000000000E+00   0.00000000000000E+00   2.53813209566615E-08   0.00000000000000E+00   0.00000000000000E+00
      0.00000000000000E+00   0.00000000000000E+00  -2.79260041535257E-09  -2.11837257599127E-08  -2.39763261752652E-08
     -4.75404048743999E-08   5.00000000000000E+00   4.99999999999998E+00   0.00000000000000E+00   0.00000000000000E+00
      1.79328261034381E-08   6.04350009289162E-09   2.39763261963297E-08  -7.09426488805904E-08
      1.83333333333333E-01
      2.75000000000000E+00   2.74999999999999E+00   0.00000000000000E+00   0.00000000000000E+00   0.00000000000000E+00
      0.00000000000000E+00   0.00000000000000E+00   2.65688273423377E-08   0.00000000000000E+00   0.00000000000000E+00
      0.00000000000000E+00   0.00000000000000E+00  -5.71508283579676E-09  -2.13293297635510E-08  -2.70444125993478E-08
     -4.85116292768569E-08   5.00000000000000E+00   4.99999999999998E+00   0.00000000000000E+00   0.00000000000000E+00
      2.02349026503506E-08   6.80950996217926E-09   2.70444126125299E-08  -7.06080727643993E-08
      1.91666666666667E-01
      2.87500000000000E+00   2.87500000000001E+00   0.00000000000000E+00   0.00000000000000E+00   0.00000000000000E+00
      0.00000000000000E+00   0.00000000000000E+00   2.77572228420395E-08   0.00000000000000E+00   0.00000000000000E+00
      0.00000000000000E+00   0.00000000000000E+00  -1.19349761399455E-08  -2.16945069522357E-08  -3.36294830921812E-08
     -4.94721750836027E-08   5.00000000000000E+00   4.99999999999998E+00   0.00000000000000E+00   0.00000000000000E+00
      2.51783171032696E-08   8.45117262442189E-09   3.36294897276915E-08  -7.00015593307651E-08
      2.00000000000000E-01
      3.00000000000000E+00   2.99999999999999E+00   0.00000000000000E+00   0.00000000000000E+00   0.00000000000000E+00
      0.00000000000000E+00   0.00000000000000E+00   2.89490116402372E-08   0.00000000000000E+00   9.18447372075268E-17
      0.00000000000000E+00   0.00000000000000E+00  -2.54036092033320E-08  -2.25569825465400E-08  -4.79605917498720E-08
     -5.04205073853629E-08   5.00000000000000E+00   4.99999999999998E+00   0.00000000000000E+00   0.00000000000000E+00
      3.59479199190232E-08   1.20126720259862E-08   4.79605919450094E-08  -6.90111987627591E-08
      2.08333333333333E-01
      3.12500000000000E+00   3.12500000000001E+00   0.00000000000000E+00   0.00000000000000E+00   0.00000000000000E+00
      0.00000000000000E+00   0.00000000000000E+00   3.01458644768912E-08   0.00000000000000E+00   9.18447372075268E-17
      0.00000000000000E+00   0.00000000000000E+00  -5.50535554820985E-08  -2.46922732247697E-08  -7.97458287068682E-08
     -5.13558647992326E-08   5.00000000000000E+00   4.99999999999998E+00   0.00000000000000E+00   0.00000000000000E+00
      5.98781532613106E-08   1.98676755439577E-08   7.97458288052683E-08  -6.75885816942226E-08
      2.16666666666667E-01
      3.25000000000000E+00   3.25000000000000E+00   0.00000000000000E+00   0.00000000000000E+00   0.00000000000000E+00
      0.00000000000000E+00   0.00000000000000E+00   3.13480808471440E-08   0.00000000000000E+00   1.83689474415054E-16
      0.00000000000000E+00   0.00000000000000E+00  -1.21367620400403E-07  -3.02606197140345E-08  -1.51628240114438E-07
     -5.22788849800726E-08   5.00000000000000E+00   4.99999999999998E+00   0.00000000000000E+00   0.00000000000000E+00
      1.14157811212571E-07   3.74704289026029E-08   1.51628240115174E-07  -6.57856699397751E-08
      2.25000000000000E-01
      3.37500000000000E+00   3.37500000000000E+00   0.00000000000000E+00   0.00000000000000E+00   0.00000000000000E+00
      0.00000000000000E+00   0.00000000000000E+00   3.25551149941641E-08   0.00000000000000E+00   2.75534211622580E-16
      0.00000000000000E+00   0.00000000000000E+00  -2.71964105649802E-07  -4.50942096987868E-08  -3.17058315348589E-07
     -5.31910278139124E-08   5.00000000000000E+00   4.99999999999998E+00   0.00000000000000E+00   0.00000000000000E+00
      2.39616213154112E-07   7.74421021945597E-08   3.17058315348672E-07  -6.37109014119823E-08
      2.33333333333333E-01
      3.50000000000000E+00   3.49999999999999E+00   0.00000000000000E+00   0.00000000000000E+00   0.00000000000000E+00
      0.00000000000000E+00   0.00000000000000E+00   3.37665062101684E-08   0.00000000000000E+00   7.34757897660214E-16
      0.00000000000000E+00   0.00000000000000E+00  -6.18999385817601E-07  -8.48286039565723E-08  -7.03827989774173E-07
     -5.40936106916031E-08   5.00000000000000E+00   4.99999999999998E+00   0.00000000000000E+00   0.00000000000000E+00
      5.34487580231663E-07   1.69340409542649E-07   7.03827989774312E-07  -6.14637795265871E-08
      2.41666666666667E-01
      3.62500000000000E+00   3.62500000000001E+00   0.00000000000000E+00   0.00000000000000E+00   0.00000000000000E+00
      0.00000000000000E+00   0.00000000000000E+00   3.49828681502271E-08   0.00000000000000E+00   1.65320526973548E-15
      0.00000000000000E+00   0.00000000000000E+00  -1.42991765096899E-06  -1.90030428380050E-07  -1.61994807934904E-06
     -5.49874799619351E-08   5.00000000000000E+00   4.99999999999998E+00   0.00000000000000E+00   0.00000000000000E+00
      1.23672606493140E-06   3.83222437690639E-07   1.61994850262203E-06  -5.91124930798266E-08
      2.50000000000000E-01
      3.75000000000000E+00   3.75000000000000E+00   0.00000000000000E+00   0.00000000000000E+00   0.00000000000000E+00
      0.00000000000000E+00   0.00000000000000E+00   3.62067083679524E-08   0.00000000000000E+00   3.85747896271612E-15
      0.00000000000000E+00   0.00000000000000E+00  -3.35008621782823E-06  -4.64170190306780E-07  -3.81425640813501E-06
     -5.58731360589366E-08   5.00000000000000E+00   4.99999999999998E+00   0.00000000000000E+00   0.00000000000000E+00
      2.92686739377021E-06   8.87389014364522E-07   3.81425640813473E-06  -5.66968326245632E-08
      2.58333333333333E-01
      3.87500000000000E+00   3.87499999999999E+00   0.00000000000000E+00   0.00000000000000E+00   0.00000000000000E+00
      0.00000000000000E+00   0.00000000000000E+00   3.74415682663070E-08   0.00000000000000E+00   9.09262898354515E-15
      0.00000000000000E+00   0.00000000000000E+00  -7.95531711926269E-06  -1.16867848526790E-06  -9.12399560453059E-06
     -5.67509997320708E-08   5.00000000000000E+00   4.99999999999998E+00   0.00000000000000E+00   0.00000000000000E+00
      7.03281404539773E-06   2.09118155913413E-06   9.12399560453186E-06  -5.42375794700020E-08
      2.66666666666667E-01
      4.00000000000000E+00   3.99999999999999E+00   0.00000000000000E+00   0.00000000000000E+00   0.00000000000000E+00
      0.00000000000000E+00   0.00000000000000E+00   3.86916042307732E-08   0.00000000000000E+00   2.21345816670139E-14
      0.00000000000000E+00   0.00000000000000E+00  -1.91397116032894E-05  -2.96441657083664E-06  -2.21041281741261E-05
     -5.76214323204831E-08   5.00000000000000E+00   4.99999999999998E+00   0.00000000000000E+00   0.00000000000000E+00
      1.71015639987164E-05   5.00256417541107E-06   2.21041281741275E-05  -5.17439276771756E-08
      2.75000000000000E-01
      4.12500000000000E+00   4.12500000000000E+00   0.00000000000000E+00   0.00000000000000E+00   0.00000000000000E+00
      0.00000000000000E+00   0.00000000000000E+00   3.99653932926665E-08   0.00000000000000E+00   5.41883949524408E-14
      0.00000000000000E+00   0.00000000000000E+00  -4.66453939475627E-05  -7.52995186007432E-06  -5.41753458076370E-05
     -5.84845087121857E-08   5.00000000000000E+00   4.99999999999997E+00   0.00000000000000E+00   0.00000000000000E+00
      4.20408122891313E-05   1.21345335184977E-05   5.41753458076290E-05  -4.92188017602715E-08
      2.83333333333333E-01
      4.25000000000000E+00   4.25000000000001E+00   0.00000000000000E+00   0.00000000000000E+00   0.00000000000000E+00
      0.00000000000000E+00   0.00000000000000E+00   4.12819264369445E-08   0.00000000000000E+00   1.34277005797404E-13
      0.00000000000000E+00   0.00000000000000E+00  -1.15152972469100E-04  -1.91588367444143E-05  -1.34311809213514E-04
     -5.93398791542362E-08   5.00000000000000E+00   4.99999999999984E+00   0.00000000000000E+00   0.00000000000000E+00
      1.04481142919386E-04   2.98306662941287E-05   1.34311809213515E-04  -4.66621610097848E-08
      2.91666666666667E-01
      4.37500000000000E+00   4.37499999999999E+00   0.00000000000000E+00   0.00000000000000E+00   0.00000000000000E+00
      0.00000000000000E+00   0.00000000000000E+00   4.26763676893820E-08   0.00000000000000E+00   3.36886496077208E-13
      0.00000000000000E+00   0.00000000000000E+00  -2.87973729000168E-04  -4.89469230015095E-05  -3.36920652001677E-04
     -6.01866150535574E-08   5.00000000000000E+00   4.99999999999965E+00   0.00000000000000E+00   0.00000000000000E+00
      2.62607855830837E-04   7.43127961708293E-05   3.36920652001666E-04  -4.40728584136037E-08
      3.00000000000000E-01
      4.50000000000000E+00   4.49999999999999E+00   0.00000000000000E+00   0.00000000000000E+00   0.00000000000000E+00
      0.00000000000000E+00   0.00000000000000E+00   4.41827723089883E-08   0.00000000000000E+00   8.55350037613697E-13
      0.00000000000000E+00   0.00000000000000E+00  -7.29408165602587E-04  -1.25910957193984E-04  -8.55319122796571E-04
     -6.10234981192047E-08   5.00000000000000E+00   4.99999999999917E+00   0.00000000000000E+00   0.00000000000000E+00
      6.67730565448365E-04   1.87588557348788E-04   8.55319122797153E-04  -4.14500598802347E-08
      3.08333333333333E-01
      4.62500000000000E+00   4.62500000000000E+00   0.00000000000000E+00   0.00000000000000E+00   0.00000000000000E+00
      0.00000000000000E+00   0.00000000000000E+00   4.57996073987325E-08   0.00000000000000E+00   2.19609951136917E-12
      0.00000000000000E+00   0.00000000000000E+00  -1.86960614364685E-03  -3.26525395711922E-04  -2.19613153935877E-03
     -6.18496299225831E-08   5.00000000000000E+00   4.99999999999778E+00   0.00000000000000E+00   0.00000000000000E+00
      1.71671097442266E-03   4.79420564936324E-04   2.19613153935898E-03  -3.87951316822999E-08
      3.16666666666667E-01
      4.75000000000000E+00   4.75000000000001E+00   0.00000000000000E+00   0.00000000000000E+00   0.00000000000000E+00
      0.00000000000000E+00   0.00000000000000E+00   4.75381584318657E-08   0.00000000000000E+00   5.69033253842953E-12
      0.00000000000000E+00   0.00000000000000E+00  -4.83693928441179E-03  -8.53426769728086E-04  -5.69036605413988E-03
     -6.26612290572907E-08   5.00000000000000E+00   4.99999999999433E+00   0.00000000000000E+00   0.00000000000000E+00
      4.45281311146224E-03   1.23755294267729E-03   5.69036605413953E-03  -3.61142223413028E-08
      3.25000000000000E-01
      4.87500000000000E+00   4.87499999999998E+00   0.00000000000000E+00   0.00000000000000E+00   0.00000000000000E+00
      0.00000000000000E+00   0.00000000000000E+00   4.94196677611708E-08   0.00000000000000E+00   1.48007794009929E-11
      0.00000000000000E+00   0.00000000000000E+00  -1.25572856504652E-02  -2.24348263741059E-03  -1.48007682878758E-02
     -6.34542146631063E-08   5.00000000000000E+00   4.99999999998517E+00   0.00000000000000E+00   0.00000000000000E+00
      1.15903995264762E-02   3.21036876140043E-03   1.48007682878766E-02  -3.34222829412138E-08
      3.33333333333334E-01
      5.00000000000000E+00   4.99999999999999E+00   0.00000000000000E+00   0.00000000000000E+00   0.00000000000000E+00
      0.00000000000000E+00   0.00000000000000E+00   5.14347144552628E-08   0.00000000000000E+00   3.83111033866384E-11
      0.00000000000000E+00   0.00000000000000E+00  -3.23946946308331E-02  -5.91644139636782E-03  -3.83111360272009E-02
     -6.42276600056693E-08   5.00000000000000E+00   4.99999999996166E+00   0.00000000000000E+00   0.00000000000000E+00
      3.00064837501483E-02   8.30465227705321E-03   3.83111360272015E-02  -3.07446197228464E-08
      3.41666666666667E-01
      5.12500000000000E+00   5.12500000000000E+00   0.00000000000000E+00   0.00000000000000E+00   0.00000000000000E+00
      0.00000000000000E+00   0.00000000000000E+00   5.35867258865767E-08   0.00000000000000E+00   9.77869998601165E-11
      0.00000000000000E+00   0.00000000000000E+00  -8.21170354075716E-02  -1.56699571211738E-02  -9.77869925287453E-02
     -6.49781197462087E-08   5.00000000000000E+00   4.99999999990218E+00   0.00000000000000E+00   0.00000000000000E+00
      7.65124017226399E-02   2.12745908061797E-02   9.77869925288196E-02  -2.81102371935369E-08
      3.50000000000000E-01
      5.25000000000000E+00   5.25000000000002E+00   0.00000000000000E+00   0.00000000000000E+00   0.00000000000000E+00
      0.00000000000000E+00   0.00000000000000E+00   5.59115898953920E-08   0.00000000000000E+00   2.43974339333856E-10
      0.00000000000000E+00   0.00000000000000E+00  -2.02240148815049E-01  -4.17342273664118E-02  -2.43974376181461E-01
     -6.56961922968122E-08   5.00000000000000E+00   4.99999999975602E+00   0.00000000000000E+00   0.00000000000000E+00
      1.90269509319579E-01   5.37048668618894E-02   2.43974376181468E-01  -2.55526766047040E-08
      3.58333333333334E-01
      5.37500000000000E+00   5.37500000000002E+00   0.00000000000000E+00   0.00000000000000E+00   0.00000000000000E+00
      0.00000000000000E+00   0.00000000000000E+00   5.84777086215211E-08   0.00000000000000E+00   5.83639597935277E-10
      0.00000000000000E+00   0.00000000000000E+00  -4.74601958263919E-01  -1.09037657010289E-01  -5.83639615274208E-01
     -6.63665641269389E-08   5.00000000000000E+00   4.99999999941635E+00   0.00000000000000E+00   0.00000000000000E+00
      4.52306653580165E-01   1.31332962376993E-01   5.83639615957157E-01  -2.31415031530433E-08
      3.66666666666667E-01
      5.50000000000000E+00   5.50000000000000E+00   0.00000000000000E+00   0.00000000000000E+00   0.00000000000000E+00
      0.00000000000000E+00   0.00000000000000E+00   6.13672161173596E-08   0.00000000000000E+00   1.30410397467810E-09
      0.00000000000000E+00   0.00000000000000E+00  -1.03831158274550E+00  -2.65792353864999E-01  -1.30410393661050E+00
     -6.69718757651010E-08   5.00000000000000E+00   4.99999999869590E+00   0.00000000000000E+00   0.00000000000000E+00
      1.00237603008243E+00   3.01727906528061E-01   1.30410393661049E+00  -2.09580198230056E-08
      3.75000000000000E-01
      5.62500000000001E+00   5.62500000000000E+00   0.00000000000000E+00   0.00000000000000E+00   0.00000000000000E+00
      0.00000000000000E+00   0.00000000000000E+00   6.46386249848305E-08   0.00000000000000E+00   2.65933469999382E-09
      0.00000000000000E+00   0.00000000000000E+00  -2.07964250416164E+00  -5.79692207683128E-01  -2.65933471184477E+00
     -6.75099499541904E-08   5.00000000000000E+00   4.99999999734065E+00   0.00000000000000E+00   0.00000000000000E+00
      2.02811646934469E+00   6.31218242500517E-01   2.65933471184520E+00  -1.90527480121043E-08
      3.83333333333334E-01
      5.75000000000001E+00   5.75000000000002E+00   0.00000000000000E+00   0.00000000000000E+00   0.00000000000000E+00
      0.00000000000000E+00   0.00000000000000E+00   6.82945731379523E-08   0.00000000000000E+00   4.89646750091572E-09
      0.00000000000000E+00   0.00000000000000E+00  -3.77957602587290E+00  -1.11689143926468E+00  -4.89646746513758E+00
     -6.81054952480743E-08   5.00000000000000E+00   4.99999999510356E+00   0.00000000000000E+00   0.00000000000000E+00
      3.71158890031726E+00   1.18487856482029E+00   4.89646746513756E+00  -1.74345134057563E-08
      3.91666666666667E-01
      5.87500000000001E+00   5.87500000000002E+00   0.00000000000000E+00   0.00000000000000E+00   0.00000000000000E+00
      0.00000000000000E+00   0.00000000000000E+00   7.22877778855748E-08   0.00000000000000E+00   8.17952339323061E-09
      0.00000000000000E+00   0.00000000000000E+00  -6.25806230270820E+00  -1.92146105919332E+00  -8.17952336190151E+00
     -6.88429793811293E-08   5.00000000000000E+00   4.99999999182049E+00   0.00000000000000E+00   0.00000000000000E+00
      6.17335215634623E+00   2.00617120555524E+00   8.17952336190147E+00  -1.60802023116377E-08
      4.00000000000000E-01
      6.00000000000001E+00   5.99999999999999E+00   0.00000000000000E+00   0.00000000000000E+00   0.00000000000000E+00